
  ___ ___ ___ _ _ _  
 |   |   |_  | | | | 
 | | | | | . | | | | 
 |__ |  _|___|_____|  21.6.0
 |___|_|             

User:   hanguo02@comput130.ghddi.org
Date:   Fri Jul  2 19:20:57 2021
Arch:   x86_64
Pid:    250257
Python: 3.6.8
gpaw:   /home/hanguo02/.local/lib/python3.6/site-packages/gpaw
_gpaw:  /home/hanguo02/.local/lib/python3.6/site-packages/
        _gpaw.cpython-36m-x86_64-linux-gnu.so
ase:    /home/hanguo02/.local/lib/python3.6/site-packages/ase (version 3.22.0)
numpy:  /usr/lib64/python3.6/site-packages/numpy (version 1.16.2)
scipy:  /usr/lib64/python3.6/site-packages/scipy (version 1.2.1)
libxc:  4.2.0
units:  Angstrom and eV
cores: 32
OpenMP: False
OMP_NUM_THREADS: 1

Input parameters:
  mode: {ecut: 400.0,
         gammacentered: False,
         name: pw}
  xc: PBE

System changes: positions, numbers, cell, pbc, initial_charges, initial_magmoms 

Initialize ...

H-setup:
  name: Hydrogen
  id: d65de229564ff8ea4db303e23b6d1ecf
  Z: 1.0
  valence: 1
  core: 0
  charge: 0.0
  file: /home/hanguo02/Software/GPAW/gpaw-setups-0.9.20000/H.PBE.gz
  compensation charges: gauss, rc=0.15, lmax=2
  cutoffs: 0.85(filt), 0.53(core),
  valence states:
                energy  radius
    1s(1.00)    -6.494   0.476
    *s          20.717   0.476
    *p           0.000   0.476

  Using partial waves for H as LCAO basis

O-setup:
  name: Oxygen
  id: 32ecd46bf208036f09c70b0ec9a88b78
  Z: 8.0
  valence: 6
  core: 2
  charge: 0.0
  file: /home/hanguo02/Software/GPAW/gpaw-setups-0.9.20000/O.PBE.gz
  compensation charges: gauss, rc=0.21, lmax=2
  cutoffs: 1.17(filt), 0.83(core),
  valence states:
                energy  radius
    2s(2.00)   -23.961   0.688
    2p(4.00)    -9.029   0.598
    *s           3.251   0.688
    *p          18.182   0.598
    *d           0.000   0.619

  Using partial waves for O as LCAO basis

Cl-setup:
  name: Chlorine
  id: 726897f06f34e53cf8e33b5885a02604
  Z: 17.0
  valence: 7
  core: 10
  charge: 0.0
  file: /home/hanguo02/Software/GPAW/gpaw-setups-0.9.20000/Cl.PBE.gz
  compensation charges: gauss, rc=0.25, lmax=2
  cutoffs: 1.40(filt), 1.49(core),
  valence states:
                energy  radius
    3s(2.00)   -20.689   0.794
    3p(5.00)    -8.594   0.794
    *s           6.523   0.794
    *p          18.617   0.794
    *d           0.000   0.794

  Using partial waves for Cl as LCAO basis

N-setup:
  name: Nitrogen
  id: f7500608b86eaa90eef8b1d9a670dc53
  Z: 7.0
  valence: 5
  core: 2
  charge: 0.0
  file: /home/hanguo02/Software/GPAW/gpaw-setups-0.9.20000/N.PBE.gz
  compensation charges: gauss, rc=0.18, lmax=2
  cutoffs: 1.11(filt), 0.96(core),
  valence states:
                energy  radius
    2s(2.00)   -18.583   0.603
    2p(3.00)    -7.089   0.529
    *s           8.629   0.603
    *p          20.123   0.529
    *d           0.000   0.577

  Using partial waves for N as LCAO basis

C-setup:
  name: Carbon
  id: 4aa54d4b901d75f77cc0ea3eec22967b
  Z: 6.0
  valence: 4
  core: 2
  charge: 0.0
  file: /home/hanguo02/Software/GPAW/gpaw-setups-0.9.20000/C.PBE.gz
  compensation charges: gauss, rc=0.20, lmax=2
  cutoffs: 1.14(filt), 1.14(core),
  valence states:
                energy  radius
    2s(2.00)   -13.751   0.635
    2p(2.00)    -5.284   0.635
    *s          13.461   0.635
    *p          21.927   0.635
    *d           0.000   0.635

  Using partial waves for C as LCAO basis

S-setup:
  name: Sulfur
  id: ca434db9faa07220b7a1d8cb6886b7a9
  Z: 16.0
  valence: 6
  core: 10
  charge: 0.0
  file: /home/hanguo02/Software/GPAW/gpaw-setups-0.9.20000/S.PBE.gz
  compensation charges: gauss, rc=0.24, lmax=2
  cutoffs: 1.77(filt), 1.66(core),
  valence states:
                energy  radius
    3s(2.00)   -17.254   0.974
    3p(4.00)    -7.008   0.979
    *s           9.957   0.974
    *p          20.203   0.979
    *d           0.000   0.900

  Using partial waves for S as LCAO basis

Reference energy: -88863.224025

Spin-paired calculation

Convergence criteria:
  Maximum total energy change: 0.0005 eV / electron
  Maximum integral of absolute density change: 0.0001 electrons
  Maximum integral of absolute eigenstate change: 4e-08 eV^2
  Maximum number of iterations: 333

Symmetries present (total): 1

  ( 1  0  0)
  ( 0  1  0)
  ( 0  0  1)

1 k-point (Gamma)
1 k-point in the irreducible part of the Brillouin zone
       k-points in crystal coordinates                weights
   0:     0.00000000    0.00000000    0.00000000          1/1

Wave functions: Plane wave expansion
  Cutoff energy: 400.000 eV
  Number of coefficients: 150939 (reduced to 75470)
  Pulay-stress correction: 0.000000 eV/Ang^3 (de/decut=0.000000)
  Using Numpy's FFT
  ScaLapack parameters: grid=1x1, blocksize=None
  Wavefunction extrapolation:
    Improved wavefunction reuse through dual PAW basis 

Occupation numbers: width=0.000 eV 

Eigensolver
   Davidson(niter=2) 

Densities:
  Coarse grid: 105*108*75 grid
  Fine grid: 210*216*150 grid
  Total Charge: 0.000000 

Density mixing:
  Method: separate
  Backend: pulay
  Linear mixing parameter: 0.05
  Mixing with 5 old densities
  Damping of long wave oscillations: 50 

Hamiltonian:
  XC and Coulomb potentials evaluated on a 210*216*150 grid
  Using the PBE Exchange-Correlation functional
 

XC parameters: PBE with 2 nearest neighbor stencil

Memory estimate:
  Process memory now: 720.58 MiB
  Calculator: 465.15 MiB
    Density: 18.80 MiB
      Arrays: 5.34 MiB
      Localized functions: 11.35 MiB
      Mixer: 2.11 MiB
    Hamiltonian: 3.84 MiB
      Arrays: 3.49 MiB
      XC: 0.00 MiB
      Poisson: 0.00 MiB
      vbar: 0.36 MiB
    Wavefunctions: 442.51 MiB
      Arrays psit_nG: 208.44 MiB
      Eigensolver: 216.70 MiB
      Projections: 0.04 MiB
      Projectors: 0.67 MiB
      PW-descriptor: 16.67 MiB

Total number of cores used: 32
Domain decomposition: 4 x 4 x 2

Number of atoms: 104
Number of atomic orbitals: 266
Number of bands in calculation: 181
Number of valence electrons: 294
Bands to converge: occupied

... initialized

Initializing position-dependent things.

Density initialized from atomic densities
Creating initial wave functions:
  181 bands from LCAO basis set

               .------------------------------------------------------.  
              /|                                                      |  
             / |                                                      |  
            /  |                                                      |  
           /   |                                                      |  
          /    |                                                      |  
         /     |                                                      |  
        /      |                                                      |  
       /       |                                                      |  
      /        |          H   H                                       |  
     /         |           C C                                        |  
    /          |                H                H     H              |  
   /           |        ClC   C              O    C   C               |  
  /            |             C   H           O S    CH                |  
 *             |           C  HC            C    O                    |  
 |             |           H HC OO C  NH   H        H                 |  
 |             |      H  OHC     C H     C                            |  
 |             | H H        CC N          C     H                     |  
 |            H|     C H  HH  H H     H CHH  C                        |  
 |             | C  C O        C                                      |  
 |             .H--------CON---CH---HH----H---C--H--------------------.  
 |            /  H C           O CC         C  H                     /   
 |           /    H  H         H   HC     H   C                     /    
 |          /                         H   C H   H                  /     
 |         /                         H     H                      /      
 |        /                                                      /       
 |       /                                                      /        
 |      /                                                      /         
 |     /                                                      /          
 |    /                                                      /           
 |   /                                                      /            
 |  /                                                      /             
 | /                                                      /              
 |/                                                      /               
 *------------------------------------------------------*                

Positions:
   0 H     16.097000   11.180000    8.069300    ( 0.0000,  0.0000,  0.0000)
   1 H     16.982600    9.668000    6.499100    ( 0.0000,  0.0000,  0.0000)
   2 H      6.711100   15.547600    5.089200    ( 0.0000,  0.0000,  0.0000)
   3 H      7.527700   17.104000   12.073700    ( 0.0000,  0.0000,  0.0000)
   4 H      5.718700   18.525000   11.177400    ( 0.0000,  0.0000,  0.0000)
   5 H      8.640100   15.475700   10.616800    ( 0.0000,  0.0000,  0.0000)
   6 H      7.891800    8.679800    7.349600    ( 0.0000,  0.0000,  0.0000)
   7 H     12.821200   10.037500   10.760400    ( 0.0000,  0.0000,  0.0000)
   8 H     13.545800   13.825400    8.357000    ( 0.0000,  0.0000,  0.0000)
   9 H      6.487300   18.108100    4.589000    ( 0.0000,  0.0000,  0.0000)
  10 H      6.741300   19.022400    6.125100    ( 0.0000,  0.0000,  0.0000)
  11 H      5.257500   19.227700    5.182500    ( 0.0000,  0.0000,  0.0000)
  12 H      4.732600    7.531900    9.776500    ( 0.0000,  0.0000,  0.0000)
  13 H      4.238000    6.882500    8.216400    ( 0.0000,  0.0000,  0.0000)
  14 H      4.000000    5.908800    9.689200    ( 0.0000,  0.0000,  0.0000)
  15 H      5.529000    4.991900    7.146300    ( 0.0000,  0.0000,  0.0000)
  16 H      5.299000    4.000000    8.605300    ( 0.0000,  0.0000,  0.0000)
  17 H      6.913100    4.273200    7.941500    ( 0.0000,  0.0000,  0.0000)
  18 H      6.857200    6.580800   10.948900    ( 0.0000,  0.0000,  0.0000)
  19 H      5.962500    5.040000   10.946900    ( 0.0000,  0.0000,  0.0000)
  20 H      7.601500    5.123300   10.312600    ( 0.0000,  0.0000,  0.0000)
  21 H     12.815300    7.542200    4.000000    ( 0.0000,  0.0000,  0.0000)
  22 H     13.332400    6.658300    5.421400    ( 0.0000,  0.0000,  0.0000)
  23 H     17.367500   13.543800    9.088700    ( 0.0000,  0.0000,  0.0000)
  24 H     17.877100   13.064000   10.760900    ( 0.0000,  0.0000,  0.0000)
  25 H     18.263100   15.501800   11.308500    ( 0.0000,  0.0000,  0.0000)
  26 H     17.705700   15.965300    9.634500    ( 0.0000,  0.0000,  0.0000)
  27 H      8.768700   12.356400    6.698100    ( 0.0000,  0.0000,  0.0000)
  28 H      7.449100   11.444200    7.489700    ( 0.0000,  0.0000,  0.0000)
  29 H      9.852400   12.968100   10.484900    ( 0.0000,  0.0000,  0.0000)
  30 H      8.708800   11.605200   10.516000    ( 0.0000,  0.0000,  0.0000)
  31 H     15.829800    6.192100    5.809400    ( 0.0000,  0.0000,  0.0000)
  32 H     16.892800    6.925300    7.027200    ( 0.0000,  0.0000,  0.0000)
  33 H     17.030900    7.396500    5.330100    ( 0.0000,  0.0000,  0.0000)
  34 H     14.245500    9.542100    4.923400    ( 0.0000,  0.0000,  0.0000)
  35 H     15.059200    8.177400    4.179800    ( 0.0000,  0.0000,  0.0000)
  36 H     12.262900   10.966500    7.220300    ( 0.0000,  0.0000,  0.0000)
  37 H     13.623500   12.084900    7.047300    ( 0.0000,  0.0000,  0.0000)
  38 H     11.067000    6.137700    8.269700    ( 0.0000,  0.0000,  0.0000)
  39 H     12.203400    5.790400    6.976400    ( 0.0000,  0.0000,  0.0000)
  40 H     12.505300    7.135400    8.106800    ( 0.0000,  0.0000,  0.0000)
  41 H     11.543200    9.061600    5.088500    ( 0.0000,  0.0000,  0.0000)
  42 H     12.522700    9.061600    6.538800    ( 0.0000,  0.0000,  0.0000)
  43 H     16.020300   14.430100   11.779200    ( 0.0000,  0.0000,  0.0000)
  44 H     10.939600   12.093600    8.473500    ( 0.0000,  0.0000,  0.0000)
  45 H     13.730700    9.294600    8.429300    ( 0.0000,  0.0000,  0.0000)
  46 H     10.354000    8.461600    8.487300    ( 0.0000,  0.0000,  0.0000)
  47 H      7.401800   13.048100    9.205500    ( 0.0000,  0.0000,  0.0000)
  48 H     14.619400    7.858000    7.124900    ( 0.0000,  0.0000,  0.0000)
  49 H     10.402700    6.993000    5.876900    ( 0.0000,  0.0000,  0.0000)
  50 O      8.835300    5.919600    8.443900    ( 0.0000,  0.0000,  0.0000)
  51 O     10.526300    9.601200   10.593000    ( 0.0000,  0.0000,  0.0000)
  52 O      9.701100   10.275500    5.823500    ( 0.0000,  0.0000,  0.0000)
  53 O     14.774800   12.223100   10.861600    ( 0.0000,  0.0000,  0.0000)
  54 O     14.029900   15.859300   10.349500    ( 0.0000,  0.0000,  0.0000)
  55 O     15.544700   15.511600    8.375600    ( 0.0000,  0.0000,  0.0000)
  56 Cl     4.548300   18.761700    8.689600    ( 0.0000,  0.0000,  0.0000)
  57 N      7.818300   14.841500    6.677300    ( 0.0000,  0.0000,  0.0000)
  58 O      5.347500   17.448700    6.213200    ( 0.0000,  0.0000,  0.0000)
  59 O      6.839900    7.018800    8.298200    ( 0.0000,  0.0000,  0.0000)
  60 O      9.039800   14.149900    8.481400    ( 0.0000,  0.0000,  0.0000)
  61 C      8.166700    6.872200    8.092100    ( 0.0000,  0.0000,  0.0000)
  62 C     11.058300   10.495200    9.942600    ( 0.0000,  0.0000,  0.0000)
  63 C      9.795500    9.959000    7.014200    ( 0.0000,  0.0000,  0.0000)
  64 C     14.175200   12.436100    9.819700    ( 0.0000,  0.0000,  0.0000)
  65 C     15.465100   10.348100    7.764300    ( 0.0000,  0.0000,  0.0000)
  66 C     15.976100    9.479600    6.865500    ( 0.0000,  0.0000,  0.0000)
  67 C      6.910900   15.682200    6.151800    ( 0.0000,  0.0000,  0.0000)
  68 C      7.229600   17.015500   11.028500    ( 0.0000,  0.0000,  0.0000)
  69 C      6.222100   17.821400   10.517600    ( 0.0000,  0.0000,  0.0000)
  70 C      8.095000   15.014400    7.987300    ( 0.0000,  0.0000,  0.0000)
  71 C      7.861100   16.104100   10.192600    ( 0.0000,  0.0000,  0.0000)
  72 C      5.861500   17.732000    9.167600    ( 0.0000,  0.0000,  0.0000)
  73 C      6.259600   16.675200    6.878900    ( 0.0000,  0.0000,  0.0000)
  74 C      7.507700   15.980800    8.830600    ( 0.0000,  0.0000,  0.0000)
  75 C      6.506700   16.825600    8.274700    ( 0.0000,  0.0000,  0.0000)
  76 N      9.349700   10.822300    8.025900    ( 0.0000,  0.0000,  0.0000)
  77 N      8.620600    7.984800    7.464900    ( 0.0000,  0.0000,  0.0000)
  78 N     12.412100   10.679400   10.078200    ( 0.0000,  0.0000,  0.0000)
  79 N     14.128900   13.670700    9.171800    ( 0.0000,  0.0000,  0.0000)
  80 C      6.012700   18.498700    5.494300    ( 0.0000,  0.0000,  0.0000)
  81 C      4.677900    6.608200    9.185600    ( 0.0000,  0.0000,  0.0000)
  82 C      5.946400    4.740400    8.126900    ( 0.0000,  0.0000,  0.0000)
  83 C      6.656300    5.668700   10.376800    ( 0.0000,  0.0000,  0.0000)
  84 C     13.151000    7.669000    5.040700    ( 0.0000,  0.0000,  0.0000)
  85 C     17.411400   13.814200   10.136500    ( 0.0000,  0.0000,  0.0000)
  86 C     17.635800   15.264400   10.457500    ( 0.0000,  0.0000,  0.0000)
  87 C      6.078000    5.998800    8.992500    ( 0.0000,  0.0000,  0.0000)
  88 C      8.433500   11.899600    7.639100    ( 0.0000,  0.0000,  0.0000)
  89 C      9.314600   12.244300    9.857400    ( 0.0000,  0.0000,  0.0000)
  90 C     16.319300    7.120300    6.114400    ( 0.0000,  0.0000,  0.0000)
  91 C     14.470100    8.476600    5.052500    ( 0.0000,  0.0000,  0.0000)
  92 C     13.178700   11.313100    7.668200    ( 0.0000,  0.0000,  0.0000)
  93 C     11.729200    6.606900    7.536700    ( 0.0000,  0.0000,  0.0000)
  94 C     12.046400    8.407900    5.816600    ( 0.0000,  0.0000,  0.0000)
  95 C     16.304200   14.622300   10.755500    ( 0.0000,  0.0000,  0.0000)
  96 C     10.271700   11.402700    9.001900    ( 0.0000,  0.0000,  0.0000)
  97 C     14.097500   10.306300    8.289200    ( 0.0000,  0.0000,  0.0000)
  98 C     10.010400    8.473100    7.456600    ( 0.0000,  0.0000,  0.0000)
  99 C      8.417600   12.899300    8.809800    ( 0.0000,  0.0000,  0.0000)
 100 C     15.285500    8.231700    6.341700    ( 0.0000,  0.0000,  0.0000)
 101 C     13.368200   11.324400    9.175300    ( 0.0000,  0.0000,  0.0000)
 102 C     10.990100    7.583200    6.596400    ( 0.0000,  0.0000,  0.0000)
 103 S     14.958700   15.033200    9.609800    ( 0.0000,  0.0000,  0.0000)

Unit cell:
           periodic     x           y           z      points  spacing
  1. axis:    no    22.263100    0.000000    0.000000   105     0.2120
  2. axis:    no     0.000000   23.227700    0.000000   108     0.2151
  3. axis:    no     0.000000    0.000000   16.073700    75     0.2143

  Lengths:  22.263100  23.227700  16.073700
  Angles:   90.000000  90.000000  90.000000

Effective grid spacing dv^(1/3) = 0.2138

                     log10-error:    total        iterations:
           time      wfs    density  energy       poisson
iter:   1  19:23:51                -647.889665           
iter:   2  19:26:04  -0.86  -0.72  -641.343259           
iter:   3  19:28:19  -0.67  -0.74  -607.473907           
iter:   4  19:30:34  -1.63  -1.04  -605.759948           
iter:   5  19:32:50  -1.51  -1.11  -603.546295           
iter:   6  19:35:04  -1.24  -1.42  -605.479215           
iter:   7  19:37:17  -1.96  -1.41  -602.713260           
iter:   8  19:39:28  -1.97  -1.73  -602.431535           
iter:   9  19:41:42  -2.69  -2.10  -602.363596           
iter:  10  19:43:54  -3.32  -2.14  -602.326082           
iter:  11  19:46:08  -3.11  -2.44  -602.338227           
iter:  12  19:48:21  -3.36  -2.43  -602.314424           
iter:  13  19:50:38  -3.90  -2.69  -602.313707           
iter:  14  19:52:52  -4.66  -2.89  -602.310957           
iter:  15  19:55:08  -5.09  -3.17  -602.310884           
iter:  16  19:57:21  -5.26  -3.22  -602.310738           
iter:  17  19:59:35  -5.56  -3.31  -602.310641           
iter:  18  20:01:51  -6.09  -3.38  -602.310615           
iter:  19  20:04:05  -5.42  -3.46  -602.310815           
iter:  20  20:06:23  -5.35  -3.45  -602.310622           
iter:  21  20:08:38  -6.85  -3.83  -602.310590           
iter:  22  20:10:54  -6.24  -4.05  -602.310616           
iter:  23  20:13:09  -6.80  -3.94  -602.310587           
iter:  24  20:15:21  -7.53  -4.31  -602.310585           

Converged after 24 iterations.

Dipole moment: (0.275102, 0.454519, 0.146298) |e|*Ang

Energy contributions relative to reference atoms: (reference = -88863.224025)

Kinetic:       +462.349259
Potential:     -476.635710
External:        +0.000000
XC:            -586.811935
Entropy (-ST):   +0.000000
Local:           -1.212198
--------------------------
Free energy:   -602.310585
Extrapolated:  -602.310585

 Band  Eigenvalues  Occupancy
    0    -27.98909    2.00000
    1    -27.04647    2.00000
    2    -26.79918    2.00000
    3    -26.45800    2.00000
    4    -26.38646    2.00000
    5    -26.05015    2.00000
    6    -25.90080    2.00000
    7    -24.98393    2.00000
    8    -24.65127    2.00000
    9    -23.66484    2.00000
   10    -23.65264    2.00000
   11    -23.45731    2.00000
   12    -23.19733    2.00000
   13    -22.79286    2.00000
   14    -22.00879    2.00000
   15    -21.67806    2.00000
   16    -21.50180    2.00000
   17    -20.70709    2.00000
   18    -19.90495    2.00000
   19    -19.74156    2.00000
   20    -19.45396    2.00000
   21    -19.33378    2.00000
   22    -19.10285    2.00000
   23    -18.69150    2.00000
   24    -18.43005    2.00000
   25    -18.28071    2.00000
   26    -17.78234    2.00000
   27    -17.64307    2.00000
   28    -17.51143    2.00000
   29    -17.05223    2.00000
   30    -16.70503    2.00000
   31    -16.51057    2.00000
   32    -16.29337    2.00000
   33    -16.22097    2.00000
   34    -16.01652    2.00000
   35    -15.87500    2.00000
   36    -15.84718    2.00000
   37    -15.61344    2.00000
   38    -15.48030    2.00000
   39    -15.42594    2.00000
   40    -14.91438    2.00000
   41    -14.83066    2.00000
   42    -14.79490    2.00000
   43    -14.58023    2.00000
   44    -14.45690    2.00000
   45    -14.24231    2.00000
   46    -14.03533    2.00000
   47    -13.88363    2.00000
   48    -13.59384    2.00000
   49    -13.44516    2.00000
   50    -13.29485    2.00000
   51    -13.26914    2.00000
   52    -12.99741    2.00000
   53    -12.93450    2.00000
   54    -12.89439    2.00000
   55    -12.59957    2.00000
   56    -12.47042    2.00000
   57    -12.34708    2.00000
   58    -12.17544    2.00000
   59    -12.02404    2.00000
   60    -11.98525    2.00000
   61    -11.79588    2.00000
   62    -11.63320    2.00000
   63    -11.57382    2.00000
   64    -11.37633    2.00000
   65    -11.27354    2.00000
   66    -11.13155    2.00000
   67    -11.11321    2.00000
   68    -10.99176    2.00000
   69    -10.93140    2.00000
   70    -10.86766    2.00000
   71    -10.82716    2.00000
   72    -10.77494    2.00000
   73    -10.70295    2.00000
   74    -10.59956    2.00000
   75    -10.55367    2.00000
   76    -10.45454    2.00000
   77    -10.39714    2.00000
   78    -10.37795    2.00000
   79    -10.24546    2.00000
   80    -10.18669    2.00000
   81    -10.10909    2.00000
   82    -10.03360    2.00000
   83     -9.95517    2.00000
   84     -9.92252    2.00000
   85     -9.88382    2.00000
   86     -9.85130    2.00000
   87     -9.74488    2.00000
   88     -9.66972    2.00000
   89     -9.60909    2.00000
   90     -9.50217    2.00000
   91     -9.48466    2.00000
   92     -9.32103    2.00000
   93     -9.15333    2.00000
   94     -9.11533    2.00000
   95     -9.03792    2.00000
   96     -8.93825    2.00000
   97     -8.86792    2.00000
   98     -8.80353    2.00000
   99     -8.79331    2.00000
  100     -8.78161    2.00000
  101     -8.72928    2.00000
  102     -8.69712    2.00000
  103     -8.60292    2.00000
  104     -8.52104    2.00000
  105     -8.48712    2.00000
  106     -8.25850    2.00000
  107     -8.18694    2.00000
  108     -8.17041    2.00000
  109     -8.07327    2.00000
  110     -8.06347    2.00000
  111     -8.02877    2.00000
  112     -7.92969    2.00000
  113     -7.90643    2.00000
  114     -7.89800    2.00000
  115     -7.80036    2.00000
  116     -7.78577    2.00000
  117     -7.75354    2.00000
  118     -7.68795    2.00000
  119     -7.56307    2.00000
  120     -7.51936    2.00000
  121     -7.44211    2.00000
  122     -7.39686    2.00000
  123     -7.24829    2.00000
  124     -7.13929    2.00000
  125     -7.11313    2.00000
  126     -7.08725    2.00000
  127     -6.94169    2.00000
  128     -6.85235    2.00000
  129     -6.67522    2.00000
  130     -6.67098    2.00000
  131     -6.62829    2.00000
  132     -6.43608    2.00000
  133     -6.32276    2.00000
  134     -6.28350    2.00000
  135     -6.24238    2.00000
  136     -6.17192    2.00000
  137     -6.10613    2.00000
  138     -5.99129    2.00000
  139     -5.70857    2.00000
  140     -5.56145    2.00000
  141     -5.43928    2.00000
  142     -5.31648    2.00000
  143     -5.27804    2.00000
  144     -5.23566    2.00000
  145     -5.05723    2.00000
  146     -4.97729    2.00000
  147     -2.23080    0.00000
  148     -1.45395    0.00000
  149     -1.42192    0.00000
  150     -1.34515    0.00000
  151     -0.80614    0.00000
  152     -0.52120    0.00000
  153     -0.29551    0.00000
  154     -0.23857    0.00000
  155     -0.19730    0.00000
  156     -0.05446    0.00000
  157     -0.01547    0.00000
  158      0.08393    0.00000
  159      0.15543    0.00000
  160      0.17704    0.00000
  161      0.26201    0.00000
  162      0.30660    0.00000
  163      0.39941    0.00000
  164      0.43541    0.00000
  165      0.47789    0.00000
  166      0.55604    0.00000
  167      0.60024    0.00000
  168      0.61500    0.00000
  169      0.66967    0.00000
  170      0.72735    0.00000
  171      0.74300    0.00000
  172      0.80664    0.00000
  173      0.85986    0.00000
  174      0.89472    0.00000
  175      0.92002    0.00000
  176      0.94256    0.00000
  177      0.96670    0.00000
  178      0.99333    0.00000
  179      1.04570    0.00000
  180      1.12427    0.00000

Fermi level: -3.60404

Gap: 2.746 eV
Transition (v -> c):
  (s=0, k=0, n=146, [0.00, 0.00, 0.00]) -> (s=0, k=0, n=147, [0.00, 0.00, 0.00])

Forces in eV/Ang:
  0 H     0.14870    0.33284    0.05468
  1 H     0.30244    0.06942   -0.12789
  2 H    -0.19172    0.10402   -0.19362
  3 H     0.01368   -0.02307    0.08653
  4 H    -0.20673    0.15764   -0.07303
  5 H     0.17638   -0.20044   -0.13356
  6 H    -0.40682    0.55005   -0.12333
  7 H     0.24246   -0.24591    0.32666
  8 H    -0.42516   -0.04163   -0.71022
  9 H     0.32036   -0.14829   -0.18494
 10 H     0.21274    0.00436    0.12612
 11 H    -0.28678    0.03421    0.02814
 12 H     0.04108    0.07946    0.17917
 13 H    -0.05495   -0.05538   -0.13959
 14 H     0.04053   -0.14360    0.05464
 15 H    -0.23134    0.09676   -0.17228
 16 H    -0.19531   -0.09835    0.14966
 17 H     0.38643   -0.12370    0.08321
 18 H    -0.09852    0.23505    0.12038
 19 H    -0.26683    0.00038    0.02627
 20 H     0.16130   -0.08059   -0.13863
 21 H    -0.01218   -0.07866   -0.10505
 22 H     0.10945   -0.19957    0.14256
 23 H    -0.23536   -0.00977   -0.33173
 24 H     0.12386   -0.24763    0.26989
 25 H     0.01611    0.13206    0.34905
 26 H    -0.04721    0.15708   -0.25430
 27 H    -0.18322    0.28538   -0.00777
 28 H    -0.27940    0.00409   -0.21491
 29 H    -0.06526    0.16153   -0.03842
 30 H     0.13460   -0.26257   -0.01344
 31 H    -0.12168   -0.28779   -0.08633
 32 H     0.09512   -0.10963    0.19386
 33 H     0.17419    0.11373   -0.22731
 34 H    -0.08520    0.22239   -0.00977
 35 H     0.32539    0.00270   -0.19181
 36 H    -0.56619   -0.16448   -0.03047
 37 H     0.37132    0.25183    0.12569
 38 H    -0.25434   -0.03075    0.00712
 39 H     0.12457   -0.00730   -0.05975
 40 H     0.23015    0.11119    0.04359
 41 H    -0.07581    0.11176    0.12904
 42 H     0.28954    0.33457    0.38967
 43 H    -0.38362   -0.06937    0.21956
 44 H     0.29294    0.19323   -0.01326
 45 H    -0.44623   -0.20499   -0.01499
 46 H     0.29247    0.02156    0.54445
 47 H    -0.07106    0.24300   -0.08471
 48 H    -0.39878    0.02473    0.19727
 49 H    -0.22857    0.05791    0.00399
 50 O     0.78888   -0.94398   -0.05008
 51 O    -0.41151   -0.21775    0.37504
 52 O     0.06108    0.09019    0.01811
 53 O     0.52227    0.33377    0.74510
 54 O    -0.64277    0.61243   -0.05522
 55 O    -0.04475    0.05870   -0.81138
 56 Cl   -0.09581    0.12180   -0.13678
 57 N     0.62864   -0.06669    1.33893
 58 O    -0.21035    0.38063   -0.09851
 59 O    -1.10417    0.40368    0.35723
 60 O    -0.33543    0.41754    0.57004
 61 C     0.04295    0.17258    0.45596
 62 C     0.32859   -0.37200   -0.76768
 63 C    -0.31565   -0.36069   -0.42707
 64 C    -0.80494   -0.06688   -0.36578
 65 C     0.85529   -0.14237   -0.07562
 66 C    -0.65000   -0.27159    0.39592
 67 C    -0.24488    0.54625    0.43976
 68 C     0.64916   -0.67076   -0.41354
 69 C    -0.39634    0.15060   -0.84414
 70 C     0.29274   -0.38514   -1.93155
 71 C    -0.02460    0.13885    0.65709
 72 C    -0.01281    0.21478    0.76629
 73 C    -0.09491   -0.54029   -0.36676
 74 C     0.20984   -0.11649    0.51757
 75 C    -0.41817    0.47015   -0.31431
 76 N     0.34027   -0.62492    0.31552
 77 N     0.63853    0.15465   -0.40844
 78 N     0.32794    1.32546   -1.02720
 79 N     0.55086   -2.02584    1.07536
 80 C    -0.49263    0.11303   -0.02580
 81 C     0.33756    0.41691   -0.32722
 82 C     0.24161    0.23985   -0.12209
 83 C     0.32599   -0.02455   -0.19234
 84 C    -0.06610    0.37500   -0.10955
 85 C     0.36382    0.31524    0.27238
 86 C    -0.07822   -0.25984   -0.18727
 87 C    -0.63074   -0.75854    0.46181
 88 C     0.03011    0.03201   -0.28786
 89 C    -0.04204   -0.02959    0.04483
 90 C    -0.09998    0.19175    0.17198
 91 C    -0.52716   -0.48720    0.09339
 92 C    -0.91391   -0.34142    0.44439
 93 C    -0.23123   -0.02562   -0.07958
 94 C    -0.53484   -0.24773   -0.35361
 95 C    -0.12358   -0.53923   -1.29326
 96 C    -0.11478    0.21263    0.99029
 97 C     0.46996    0.18821   -0.42710
 98 C     0.03366    0.04845   -0.68774
 99 C     0.75528   -0.57981    0.29840
100 C     0.79973    0.30414   -0.10472
101 C     0.09976   -0.19595   -0.34111
102 C     0.49378   -0.00137    0.19071
103 S     1.16513    1.77954    1.60476

System changes: positions 

Initializing position-dependent things.

Density initialized from wave functions
               .------------------------------------------------------.  
              /|                                                      |  
             / |                                                      |  
            /  |                                                      |  
           /   |                                                      |  
          /    |                                                      |  
         /     |                                                      |  
        /      |                                                      |  
       /       |                                                      |  
      /        |          H   H                                       |  
     /         |           C C                                        |  
    /          |                H                H     H              |  
   /           |        ClC   C              O    C   C               |  
  /            |             C   H           O S    CH                |  
 *             |           C  HC           CN    O                    |  
 |             |           H HC OO C  NH   H        H                 |  
 |             |      H  OHC     C H     C                            |  
 |             | H H        CC N          C     H                     |  
 |            H|     C H  HH  H H     H CHH  C                        |  
 |             | C  C O        C                                      |  
 |             .H--------CON---CH---HH----H---C--H--------------------.  
 |            / H  C           O CC         C  H                     /   
 |           /    H  H         H   HC     H   C                     /    
 |          /                         H   C H   H                  /     
 |         /                         H     H                      /      
 |        /                                                      /       
 |       /                                                      /        
 |      /                                                      /         
 |     /                                                      /          
 |    /                                                      /           
 |   /                                                      /            
 |  /                                                      /             
 | /                                                      /              
 |/                                                      /               
 *------------------------------------------------------*                

Positions:
   0 H     16.099124   11.184755    8.070081    ( 0.0000,  0.0000,  0.0000)
   1 H     16.986921    9.668992    6.497273    ( 0.0000,  0.0000,  0.0000)
   2 H      6.708361   15.549086    5.086434    ( 0.0000,  0.0000,  0.0000)
   3 H      7.527895   17.103670   12.074936    ( 0.0000,  0.0000,  0.0000)
   4 H      5.715747   18.527252   11.176357    ( 0.0000,  0.0000,  0.0000)
   5 H      8.642620   15.472837   10.614892    ( 0.0000,  0.0000,  0.0000)
   6 H      7.885988    8.687658    7.347838    ( 0.0000,  0.0000,  0.0000)
   7 H     12.824664   10.033987   10.765067    ( 0.0000,  0.0000,  0.0000)
   8 H     13.539726   13.824805    8.346854    ( 0.0000,  0.0000,  0.0000)
   9 H      6.491877   18.105982    4.586358    ( 0.0000,  0.0000,  0.0000)
  10 H      6.744339   19.022462    6.126902    ( 0.0000,  0.0000,  0.0000)
  11 H      5.253403   19.228189    5.182902    ( 0.0000,  0.0000,  0.0000)
  12 H      4.733187    7.533035    9.779060    ( 0.0000,  0.0000,  0.0000)
  13 H      4.237215    6.881709    8.214406    ( 0.0000,  0.0000,  0.0000)
  14 H      4.000579    5.906749    9.689981    ( 0.0000,  0.0000,  0.0000)
  15 H      5.525695    4.993282    7.143839    ( 0.0000,  0.0000,  0.0000)
  16 H      5.296210    3.998595    8.607438    ( 0.0000,  0.0000,  0.0000)
  17 H      6.918620    4.271433    7.942689    ( 0.0000,  0.0000,  0.0000)
  18 H      6.855793    6.584158   10.950620    ( 0.0000,  0.0000,  0.0000)
  19 H      5.958688    5.040005   10.947275    ( 0.0000,  0.0000,  0.0000)
  20 H      7.603804    5.122149   10.310620    ( 0.0000,  0.0000,  0.0000)
  21 H     12.815126    7.541076    3.998499    ( 0.0000,  0.0000,  0.0000)
  22 H     13.333964    6.655449    5.423437    ( 0.0000,  0.0000,  0.0000)
  23 H     17.364138   13.543660    9.083961    ( 0.0000,  0.0000,  0.0000)
  24 H     17.878869   13.060462   10.764756    ( 0.0000,  0.0000,  0.0000)
  25 H     18.263330   15.503687   11.313486    ( 0.0000,  0.0000,  0.0000)
  26 H     17.705026   15.967544    9.630867    ( 0.0000,  0.0000,  0.0000)
  27 H      8.766083   12.360477    6.697989    ( 0.0000,  0.0000,  0.0000)
  28 H      7.445109   11.444258    7.486630    ( 0.0000,  0.0000,  0.0000)
  29 H      9.851468   12.970408   10.484351    ( 0.0000,  0.0000,  0.0000)
  30 H      8.710723   11.601449   10.515808    ( 0.0000,  0.0000,  0.0000)
  31 H     15.828062    6.187989    5.808167    ( 0.0000,  0.0000,  0.0000)
  32 H     16.894159    6.923734    7.029969    ( 0.0000,  0.0000,  0.0000)
  33 H     17.033388    7.398125    5.326853    ( 0.0000,  0.0000,  0.0000)
  34 H     14.244283    9.545277    4.923260    ( 0.0000,  0.0000,  0.0000)
  35 H     15.063848    8.177439    4.177060    ( 0.0000,  0.0000,  0.0000)
  36 H     12.254812   10.964150    7.219865    ( 0.0000,  0.0000,  0.0000)
  37 H     13.628805   12.088498    7.049096    ( 0.0000,  0.0000,  0.0000)
  38 H     11.063367    6.137261    8.269802    ( 0.0000,  0.0000,  0.0000)
  39 H     12.205180    5.790296    6.975546    ( 0.0000,  0.0000,  0.0000)
  40 H     12.508588    7.136988    8.107423    ( 0.0000,  0.0000,  0.0000)
  41 H     11.542117    9.063197    5.090343    ( 0.0000,  0.0000,  0.0000)
  42 H     12.526836    9.066380    6.544367    ( 0.0000,  0.0000,  0.0000)
  43 H     16.014820   14.429109   11.782337    ( 0.0000,  0.0000,  0.0000)
  44 H     10.943785   12.096360    8.473311    ( 0.0000,  0.0000,  0.0000)
  45 H     13.724325    9.291672    8.429086    ( 0.0000,  0.0000,  0.0000)
  46 H     10.358178    8.461908    8.495078    ( 0.0000,  0.0000,  0.0000)
  47 H      7.400785   13.051571    9.204290    ( 0.0000,  0.0000,  0.0000)
  48 H     14.613703    7.858353    7.127718    ( 0.0000,  0.0000,  0.0000)
  49 H     10.399435    6.993827    5.876957    ( 0.0000,  0.0000,  0.0000)
  50 O      8.846570    5.906115    8.443185    ( 0.0000,  0.0000,  0.0000)
  51 O     10.520421    9.598089   10.598358    ( 0.0000,  0.0000,  0.0000)
  52 O      9.701973   10.276788    5.823759    ( 0.0000,  0.0000,  0.0000)
  53 O     14.782261   12.227868   10.872244    ( 0.0000,  0.0000,  0.0000)
  54 O     14.020718   15.868049   10.348711    ( 0.0000,  0.0000,  0.0000)
  55 O     15.544061   15.512439    8.364009    ( 0.0000,  0.0000,  0.0000)
  56 Cl     4.546931   18.763440    8.687646    ( 0.0000,  0.0000,  0.0000)
  57 N      7.827281   14.840547    6.696428    ( 0.0000,  0.0000,  0.0000)
  58 O      5.344495   17.454138    6.211793    ( 0.0000,  0.0000,  0.0000)
  59 O      6.824126    7.024567    8.303303    ( 0.0000,  0.0000,  0.0000)
  60 O      9.035008   14.155865    8.489543    ( 0.0000,  0.0000,  0.0000)
  61 C      8.167314    6.874665    8.098614    ( 0.0000,  0.0000,  0.0000)
  62 C     11.062994   10.489886    9.931633    ( 0.0000,  0.0000,  0.0000)
  63 C      9.790991    9.953847    7.008099    ( 0.0000,  0.0000,  0.0000)
  64 C     14.163701   12.435145    9.814475    ( 0.0000,  0.0000,  0.0000)
  65 C     15.477318   10.346066    7.763220    ( 0.0000,  0.0000,  0.0000)
  66 C     15.966814    9.475720    6.871156    ( 0.0000,  0.0000,  0.0000)
  67 C      6.907402   15.690004    6.158082    ( 0.0000,  0.0000,  0.0000)
  68 C      7.238874   17.005918   11.022592    ( 0.0000,  0.0000,  0.0000)
  69 C      6.216438   17.823551   10.505541    ( 0.0000,  0.0000,  0.0000)
  70 C      8.099182   15.008898    7.959706    ( 0.0000,  0.0000,  0.0000)
  71 C      7.860749   16.106084   10.201987    ( 0.0000,  0.0000,  0.0000)
  72 C      5.861317   17.735068    9.178547    ( 0.0000,  0.0000,  0.0000)
  73 C      6.258244   16.667482    6.873661    ( 0.0000,  0.0000,  0.0000)
  74 C      7.510698   15.979136    8.837994    ( 0.0000,  0.0000,  0.0000)
  75 C      6.500726   16.832316    8.270210    ( 0.0000,  0.0000,  0.0000)
  76 N      9.354561   10.813373    8.030407    ( 0.0000,  0.0000,  0.0000)
  77 N      8.629722    7.987009    7.459065    ( 0.0000,  0.0000,  0.0000)
  78 N     12.416785   10.698335   10.063526    ( 0.0000,  0.0000,  0.0000)
  79 N     14.136769   13.641759    9.187162    ( 0.0000,  0.0000,  0.0000)
  80 C      6.005662   18.500315    5.493931    ( 0.0000,  0.0000,  0.0000)
  81 C      4.682722    6.614156    9.180925    ( 0.0000,  0.0000,  0.0000)
  82 C      5.949852    4.743826    8.125156    ( 0.0000,  0.0000,  0.0000)
  83 C      6.660957    5.668349   10.374052    ( 0.0000,  0.0000,  0.0000)
  84 C     13.150056    7.674357    5.039135    ( 0.0000,  0.0000,  0.0000)
  85 C     17.416597   13.818703   10.140391    ( 0.0000,  0.0000,  0.0000)
  86 C     17.634683   15.260688   10.454825    ( 0.0000,  0.0000,  0.0000)
  87 C      6.068989    5.987964    8.999097    ( 0.0000,  0.0000,  0.0000)
  88 C      8.433930   11.900057    7.634988    ( 0.0000,  0.0000,  0.0000)
  89 C      9.313999   12.243877    9.858040    ( 0.0000,  0.0000,  0.0000)
  90 C     16.317872    7.123039    6.116857    ( 0.0000,  0.0000,  0.0000)
  91 C     14.462569    8.469640    5.053834    ( 0.0000,  0.0000,  0.0000)
  92 C     13.165644   11.308223    7.674548    ( 0.0000,  0.0000,  0.0000)
  93 C     11.725897    6.606534    7.535563    ( 0.0000,  0.0000,  0.0000)
  94 C     12.038759    8.404361    5.811548    ( 0.0000,  0.0000,  0.0000)
  95 C     16.302435   14.614597   10.737025    ( 0.0000,  0.0000,  0.0000)
  96 C     10.270060   11.405738    9.016047    ( 0.0000,  0.0000,  0.0000)
  97 C     14.104214   10.308989    8.283099    ( 0.0000,  0.0000,  0.0000)
  98 C     10.010881    8.473792    7.446775    ( 0.0000,  0.0000,  0.0000)
  99 C      8.428390   12.891017    8.814063    ( 0.0000,  0.0000,  0.0000)
 100 C     15.296925    8.236045    6.340204    ( 0.0000,  0.0000,  0.0000)
 101 C     13.369625   11.321601    9.170427    ( 0.0000,  0.0000,  0.0000)
 102 C     10.997154    7.583180    6.599124    ( 0.0000,  0.0000,  0.0000)
 103 S     14.975345   15.058622    9.632725    ( 0.0000,  0.0000,  0.0000)

Unit cell:
           periodic     x           y           z      points  spacing
  1. axis:    no    22.263100    0.000000    0.000000   105     0.2120
  2. axis:    no     0.000000   23.227700    0.000000   108     0.2151
  3. axis:    no     0.000000    0.000000   16.073700    75     0.2143

  Lengths:  22.263100  23.227700  16.073700
  Angles:   90.000000  90.000000  90.000000

Effective grid spacing dv^(1/3) = 0.2138

                     log10-error:    total        iterations:
           time      wfs    density  energy       poisson
iter:   1  20:19:24  -1.99         -602.919304           
iter:   2  20:21:36  -3.41  -2.15  -602.883260           
iter:   3  20:23:48  -2.68  -2.18  -602.742565           
iter:   4  20:26:02  -4.16  -2.57  -602.741145           
iter:   5  20:28:17  -4.23  -2.56  -602.732686           
iter:   6  20:30:31  -3.74  -2.71  -602.727086           
iter:   7  20:32:46  -4.70  -2.87  -602.724051           
iter:   8  20:35:00  -5.24  -3.16  -602.723760           
iter:   9  20:37:14  -5.68  -3.34  -602.723805           
iter:  10  20:39:29  -5.36  -3.39  -602.723725           
iter:  11  20:41:43  -6.32  -3.77  -602.723678           
iter:  12  20:43:59  -7.44  -3.81  -602.723681           
iter:  13  20:46:15  -6.70  -3.92  -602.723687           
iter:  14  20:48:28  -7.92  -4.07  -602.723687           

Converged after 14 iterations.

Dipole moment: (0.349006, 0.533508, 0.152775) |e|*Ang

Energy contributions relative to reference atoms: (reference = -88863.224025)

Kinetic:       +450.955833
Potential:     -468.698529
External:        +0.000000
XC:            -583.800518
Entropy (-ST):   +0.000000
Local:           -1.180473
--------------------------
Free energy:   -602.723687
Extrapolated:  -602.723687

 Band  Eigenvalues  Occupancy
    0    -27.96401    2.00000
    1    -26.81781    2.00000
    2    -26.75070    2.00000
    3    -26.35064    2.00000
    4    -26.09813    2.00000
    5    -26.00088    2.00000
    6    -25.78403    2.00000
    7    -25.08421    2.00000
    8    -24.49117    2.00000
    9    -23.61219    2.00000
   10    -23.57455    2.00000
   11    -23.31453    2.00000
   12    -23.29220    2.00000
   13    -22.74960    2.00000
   14    -22.01288    2.00000
   15    -21.88006    2.00000
   16    -21.43319    2.00000
   17    -20.66427    2.00000
   18    -19.92174    2.00000
   19    -19.75968    2.00000
   20    -19.46573    2.00000
   21    -19.33357    2.00000
   22    -19.12181    2.00000
   23    -18.65660    2.00000
   24    -18.42764    2.00000
   25    -18.24895    2.00000
   26    -17.80238    2.00000
   27    -17.74101    2.00000
   28    -17.56110    2.00000
   29    -17.04601    2.00000
   30    -16.71324    2.00000
   31    -16.58471    2.00000
   32    -16.29938    2.00000
   33    -16.22453    2.00000
   34    -16.00062    2.00000
   35    -15.85776    2.00000
   36    -15.82721    2.00000
   37    -15.60641    2.00000
   38    -15.46617    2.00000
   39    -15.38648    2.00000
   40    -14.84098    2.00000
   41    -14.82222    2.00000
   42    -14.77234    2.00000
   43    -14.50642    2.00000
   44    -14.37698    2.00000
   45    -14.06588    2.00000
   46    -13.98821    2.00000
   47    -13.84371    2.00000
   48    -13.53817    2.00000
   49    -13.43446    2.00000
   50    -13.26876    2.00000
   51    -13.22386    2.00000
   52    -13.00390    2.00000
   53    -12.88342    2.00000
   54    -12.83243    2.00000
   55    -12.49839    2.00000
   56    -12.45633    2.00000
   57    -12.31244    2.00000
   58    -12.17423    2.00000
   59    -12.08264    2.00000
   60    -11.99546    2.00000
   61    -11.75782    2.00000
   62    -11.70183    2.00000
   63    -11.53304    2.00000
   64    -11.34411    2.00000
   65    -11.28459    2.00000
   66    -11.12022    2.00000
   67    -11.08881    2.00000
   68    -10.97139    2.00000
   69    -10.90833    2.00000
   70    -10.84314    2.00000
   71    -10.76314    2.00000
   72    -10.73989    2.00000
   73    -10.67779    2.00000
   74    -10.56370    2.00000
   75    -10.54906    2.00000
   76    -10.43007    2.00000
   77    -10.38356    2.00000
   78    -10.23831    2.00000
   79    -10.20104    2.00000
   80    -10.14618    2.00000
   81    -10.07722    2.00000
   82    -10.00221    2.00000
   83     -9.94914    2.00000
   84     -9.91236    2.00000
   85     -9.89160    2.00000
   86     -9.82608    2.00000
   87     -9.72407    2.00000
   88     -9.59627    2.00000
   89     -9.55793    2.00000
   90     -9.47141    2.00000
   91     -9.45470    2.00000
   92     -9.26962    2.00000
   93     -9.11025    2.00000
   94     -9.07363    2.00000
   95     -9.02558    2.00000
   96     -8.95493    2.00000
   97     -8.87564    2.00000
   98     -8.81789    2.00000
   99     -8.77888    2.00000
  100     -8.75344    2.00000
  101     -8.67888    2.00000
  102     -8.64314    2.00000
  103     -8.56754    2.00000
  104     -8.46278    2.00000
  105     -8.45134    2.00000
  106     -8.22237    2.00000
  107     -8.16447    2.00000
  108     -8.14060    2.00000
  109     -8.11223    2.00000
  110     -8.04039    2.00000
  111     -8.01652    2.00000
  112     -7.93507    2.00000
  113     -7.90525    2.00000
  114     -7.88600    2.00000
  115     -7.79711    2.00000
  116     -7.77635    2.00000
  117     -7.72790    2.00000
  118     -7.68160    2.00000
  119     -7.61153    2.00000
  120     -7.53581    2.00000
  121     -7.41691    2.00000
  122     -7.36246    2.00000
  123     -7.29082    2.00000
  124     -7.19320    2.00000
  125     -7.08262    2.00000
  126     -7.02790    2.00000
  127     -6.93352    2.00000
  128     -6.87835    2.00000
  129     -6.85458    2.00000
  130     -6.65404    2.00000
  131     -6.64172    2.00000
  132     -6.42605    2.00000
  133     -6.29077    2.00000
  134     -6.28142    2.00000
  135     -6.19503    2.00000
  136     -6.14175    2.00000
  137     -6.08297    2.00000
  138     -5.86272    2.00000
  139     -5.68480    2.00000
  140     -5.55589    2.00000
  141     -5.46073    2.00000
  142     -5.30292    2.00000
  143     -5.26375    2.00000
  144     -5.21262    2.00000
  145     -5.10424    2.00000
  146     -5.03239    2.00000
  147     -2.08504    0.00000
  148     -1.55628    0.00000
  149     -1.37582    0.00000
  150     -1.19960    0.00000
  151     -0.84488    0.00000
  152     -0.51319    0.00000
  153     -0.28797    0.00000
  154     -0.22228    0.00000
  155     -0.17757    0.00000
  156     -0.10271    0.00000
  157     -0.02302    0.00000
  158      0.08566    0.00000
  159      0.14909    0.00000
  160      0.15911    0.00000
  161      0.24669    0.00000
  162      0.27034    0.00000
  163      0.37850    0.00000
  164      0.42197    0.00000
  165      0.44219    0.00000
  166      0.52655    0.00000
  167      0.57980    0.00000
  168      0.59354    0.00000
  169      0.64627    0.00000
  170      0.70276    0.00000
  171      0.71778    0.00000
  172      0.77317    0.00000
  173      0.82047    0.00000
  174      0.83801    0.00000
  175      0.88667    0.00000
  176      0.89512    0.00000
  177      0.92925    0.00000
  178      0.97359    0.00000
  179      0.98568    0.00000
  180      1.01987    0.00000

Fermi level: -3.55871

Gap: 2.947 eV
Transition (v -> c):
  (s=0, k=0, n=146, [0.00, 0.00, 0.00]) -> (s=0, k=0, n=147, [0.00, 0.00, 0.00])

Forces in eV/Ang:
  0 H     0.19999    0.27918    0.01805
  1 H    -0.13417   -0.03647    0.03545
  2 H    -0.09229    0.11768    0.14828
  3 H    -0.02147   -0.04286   -0.08422
  4 H    -0.10821    0.02608   -0.18458
  5 H     0.16506   -0.18044   -0.09097
  6 H     0.03940    0.15551   -0.05888
  7 H    -0.11391    0.44538   -0.35872
  8 H     0.34207   -0.27898    0.40014
  9 H     0.17479   -0.04036   -0.00332
 10 H     0.04961   -0.05970    0.00392
 11 H    -0.33332    0.09666   -0.00770
 12 H     0.07592    0.08550    0.14666
 13 H    -0.03081   -0.02804   -0.18175
 14 H     0.16800    0.07925   -0.08209
 15 H    -0.16539    0.09034   -0.08454
 16 H    -0.03118    0.04282    0.00761
 17 H     0.27178   -0.04284    0.09529
 18 H    -0.10567    0.11764    0.01668
 19 H    -0.09510    0.08854   -0.04037
 20 H     0.19267   -0.09359   -0.14923
 21 H     0.00604   -0.06554   -0.09923
 22 H     0.03470    0.04695    0.04084
 23 H    -0.14597    0.05048   -0.01440
 24 H     0.02075   -0.13450    0.20603
 25 H    -0.16954    0.08229    0.14310
 26 H    -0.03715    0.03604   -0.14560
 27 H    -0.11612    0.27723   -0.06827
 28 H    -0.14896    0.05475   -0.17837
 29 H    -0.08891    0.12822   -0.03485
 30 H     0.11633   -0.22620    0.00042
 31 H    -0.04983   -0.07102   -0.01722
 32 H     0.05710   -0.08610    0.12294
 33 H     0.06902    0.05099   -0.08177
 34 H    -0.04280   -0.02854    0.01649
 35 H     0.14810    0.03674   -0.01916
 36 H    -0.61724   -0.19704   -0.04189
 37 H     0.06647   -0.09978    0.38002
 38 H    -0.22928   -0.00504   -0.02979
 39 H     0.08175    0.02846   -0.03241
 40 H     0.08740    0.00960   -0.03533
 41 H    -0.17255    0.15978    0.03702
 42 H     0.04265    0.02224    0.02395
 43 H    -0.21173    0.03439   -0.42822
 44 H     0.09075    0.03279    0.16280
 45 H    -0.24837    0.08398   -0.05798
 46 H     0.12973    0.06780    0.01240
 47 H     0.20632    0.11782   -0.15026
 48 H    -0.10631    0.14449   -0.08767
 49 H    -0.10354    0.12064    0.12308
 50 O    -0.03299    0.05136   -0.35158
 51 O     0.15773    0.35376   -0.07248
 52 O    -0.00751    0.17151   -0.29987
 53 O    -0.15455    0.29101   -0.22319
 54 O    -0.56391    0.74696    0.14403
 55 O    -0.30793   -0.11432    0.11402
 56 Cl   -0.10717    0.14242   -0.08715
 57 N    -0.25379    0.12008   -0.94399
 58 O    -0.15791    0.09487   -0.01014
 59 O    -0.14275    0.24084    0.26771
 60 O    -0.08406    0.09058    0.57694
 61 C     0.29279   -0.40941    0.51712
 62 C     0.05666   -0.60101   -0.18908
 63 C    -0.10123   -0.30256    0.00019
 64 C     0.15832   -0.68387    1.07943
 65 C     0.24579    0.20426    0.30348
 66 C     0.44992   -0.24327   -0.18811
 67 C     0.25443   -0.25128   -0.05260
 68 C    -0.25237    0.36036    0.08071
 69 C     0.28505   -0.11045    0.37872
 70 C     0.36516    0.27315    0.78010
 71 C     0.39102   -0.51157   -0.07824
 72 C    -0.25888    0.11539   -0.34294
 73 C    -0.44947    0.10767   -0.10912
 74 C    -0.17170    0.06387   -0.29807
 75 C     0.18540   -0.02754    0.32354
 76 N     0.06095   -0.29569    0.17502
 77 N    -0.30433    0.03027   -0.19364
 78 N     0.24859    0.07826    0.21653
 79 N     0.00068   -0.11849   -0.46824
 80 C    -0.04591    0.06375   -0.07959
 81 C    -0.07547    0.01045    0.02779
 82 C     0.02715   -0.14748   -0.08167
 83 C     0.03733   -0.07644    0.10917
 84 C    -0.15122   -0.11335   -0.01408
 85 C     0.39444   -0.15206   -0.33417
 86 C     0.28043    0.14333   -0.04687
 87 C    -0.33245   -0.26882    0.22259
 88 C     0.11399   -0.22601   -0.02721
 89 C     0.05430   -0.05692    0.28092
 90 C     0.13637   -0.03093   -0.00923
 91 C    -0.09715   -0.01710   -0.12723
 92 C    -0.29581    0.14206   -0.06505
 93 C     0.04322   -0.02048    0.07930
 94 C    -0.01173    0.13611    0.14786
 95 C    -0.20872   -0.33164    0.06014
 96 C     0.14357    0.12051    0.31125
 97 C     0.20063   -0.19834   -0.29363
 98 C     0.35184    0.04076    0.00602
 99 C     0.08589   -0.09825    0.11310
100 C    -0.06772   -0.06107    0.21440
101 C     0.17406   -0.07303   -0.38916
102 C     0.08653   -0.13966   -0.12601
103 S     0.73223    0.66744   -0.02987

System changes: positions 

Initializing position-dependent things.

Density initialized from wave functions
               .------------------------------------------------------.  
              /|                                                      |  
             / |                                                      |  
            /  |                                                      |  
           /   |                                                      |  
          /    |                                                      |  
         /     |                                                      |  
        /      |                                                      |  
       /       |                                                      |  
      /        |          H   H                                       |  
     /         |           C C                                        |  
    /          |                H                H     H              |  
   /           |        ClC   C              O    C   C               |  
  /            |             C   H           O S    CH                |  
 *             |           C  HC           CN    O                    |  
 |             |          CH HC OO C  NH   H        H                 |  
 |             |      H  OHC     C H     C                            |  
 |             | H H        CC N          C     H                     |  
 |            H|     C H  HH  H H     H H H  C                        |  
 |             | C  C O        C                                      |  
 |             .H--------CON---CH---HH----H---C--H--------------------.  
 |            / H  C           O CC         C  H                     /   
 |           /    H  H         H   HC     H   C                     /    
 |          /                         H   C H   H                  /     
 |         /                         H     H                      /      
 |        /                                                      /       
 |       /                                                      /        
 |      /                                                      /         
 |     /                                                      /          
 |    /                                                      /           
 |   /                                                      /            
 |  /                                                      /             
 | /                                                      /              
 |/                                                      /               
 *------------------------------------------------------*                

Positions:
   0 H     16.102680   11.190244    8.070575    ( 0.0000,  0.0000,  0.0000)
   1 H     16.986221    9.668748    6.497257    ( 0.0000,  0.0000,  0.0000)
   2 H      6.706204   15.551248    5.087797    ( 0.0000,  0.0000,  0.0000)
   3 H      7.527638   17.102945   12.074064    ( 0.0000,  0.0000,  0.0000)
   4 H      5.713293   18.528295   11.173344    ( 0.0000,  0.0000,  0.0000)
   5 H      8.645780   15.469350   10.612998    ( 0.0000,  0.0000,  0.0000)
   6 H      7.884860    8.692244    7.346458    ( 0.0000,  0.0000,  0.0000)
   7 H     12.824010   10.039487   10.761176    ( 0.0000,  0.0000,  0.0000)
   8 H     13.542960   13.820540    8.349744    ( 0.0000,  0.0000,  0.0000)
   9 H      6.495783   18.104768    4.585534    ( 0.0000,  0.0000,  0.0000)
  10 H      6.745959   19.021605    6.127488    ( 0.0000,  0.0000,  0.0000)
  11 H      5.247313   19.229749    5.182907    ( 0.0000,  0.0000,  0.0000)
  12 H      4.734472    7.534622    9.781961    ( 0.0000,  0.0000,  0.0000)
  13 H      4.236533    6.881066    8.211156    ( 0.0000,  0.0000,  0.0000)
  14 H      4.003212    5.907309    9.689006    ( 0.0000,  0.0000,  0.0000)
  15 H      5.522300    4.995013    7.141877    ( 0.0000,  0.0000,  0.0000)
  16 H      5.294934    3.998810    8.608177    ( 0.0000,  0.0000,  0.0000)
  17 H      6.924226    4.270286    7.944435    ( 0.0000,  0.0000,  0.0000)
  18 H      6.853830    6.586868   10.951369    ( 0.0000,  0.0000,  0.0000)
  19 H      5.956175    5.041305   10.946794    ( 0.0000,  0.0000,  0.0000)
  20 H      7.607306    5.120438   10.307850    ( 0.0000,  0.0000,  0.0000)
  21 H     12.815164    7.539785    3.996604    ( 0.0000,  0.0000,  0.0000)
  22 H     13.334931    6.655301    5.424633    ( 0.0000,  0.0000,  0.0000)
  23 H     17.361011   13.544360    9.082359    ( 0.0000,  0.0000,  0.0000)
  24 H     17.879693   13.057452   10.768908    ( 0.0000,  0.0000,  0.0000)
  25 H     18.260912   15.505447   11.317048    ( 0.0000,  0.0000,  0.0000)
  26 H     17.704283   15.968731    9.627666    ( 0.0000,  0.0000,  0.0000)
  27 H      8.763612   12.365738    6.696955    ( 0.0000,  0.0000,  0.0000)
  28 H      7.441753   11.445078    7.483113    ( 0.0000,  0.0000,  0.0000)
  29 H      9.849890   12.972965   10.483679    ( 0.0000,  0.0000,  0.0000)
  30 H      8.712993   11.597031   10.515758    ( 0.0000,  0.0000,  0.0000)
  31 H     15.826821    6.185741    5.807552    ( 0.0000,  0.0000,  0.0000)
  32 H     16.895395    6.922012    7.032585    ( 0.0000,  0.0000,  0.0000)
  33 H     17.035131    7.399349    5.324701    ( 0.0000,  0.0000,  0.0000)
  34 H     14.243298    9.545791    4.923461    ( 0.0000,  0.0000,  0.0000)
  35 H     15.067384    8.177989    4.175975    ( 0.0000,  0.0000,  0.0000)
  36 H     12.243387   10.960571    7.219123    ( 0.0000,  0.0000,  0.0000)
  37 H     13.631336   12.088090    7.055195    ( 0.0000,  0.0000,  0.0000)
  38 H     11.058938    6.137058    8.269395    ( 0.0000,  0.0000,  0.0000)
  39 H     12.206901    5.790682    6.974821    ( 0.0000,  0.0000,  0.0000)
  40 H     12.510834    7.137595    8.107087    ( 0.0000,  0.0000,  0.0000)
  41 H     11.539269    9.066008    5.091427    ( 0.0000,  0.0000,  0.0000)
  42 H     12.528676    9.068108    6.546352    ( 0.0000,  0.0000,  0.0000)
  43 H     16.010107   14.429322   11.776978    ( 0.0000,  0.0000,  0.0000)
  44 H     10.946344   12.097651    8.475642    ( 0.0000,  0.0000,  0.0000)
  45 H     13.718813    9.292044    8.428173    ( 0.0000,  0.0000,  0.0000)
  46 H     10.361307    8.462993    8.497542    ( 0.0000,  0.0000,  0.0000)
  47 H      7.403512   13.054318    9.201731    ( 0.0000,  0.0000,  0.0000)
  48 H     14.610472    7.860576    7.127260    ( 0.0000,  0.0000,  0.0000)
  49 H     10.396958    6.995839    5.878778    ( 0.0000,  0.0000,  0.0000)
  50 O      8.849393    5.902910    8.437819    ( 0.0000,  0.0000,  0.0000)
  51 O     10.521009    9.602364   10.598867    ( 0.0000,  0.0000,  0.0000)
  52 O      9.702119   10.279681    5.819438    ( 0.0000,  0.0000,  0.0000)
  53 O     14.782184   12.233535   10.872095    ( 0.0000,  0.0000,  0.0000)
  54 O     14.009754   15.881570   10.350591    ( 0.0000,  0.0000,  0.0000)
  55 O     15.539358   15.511008    8.362279    ( 0.0000,  0.0000,  0.0000)
  56 Cl     4.544958   18.766039    8.685795    ( 0.0000,  0.0000,  0.0000)
  57 N      7.826195   14.842028    6.688199    ( 0.0000,  0.0000,  0.0000)
  58 O      5.341298   17.457124    6.211231    ( 0.0000,  0.0000,  0.0000)
  59 O      6.817404    7.029791    8.308726    ( 0.0000,  0.0000,  0.0000)
  60 O      9.032369   14.158944    8.500393    ( 0.0000,  0.0000,  0.0000)
  61 C      8.171787    6.869386    8.108108    ( 0.0000,  0.0000,  0.0000)
  62 C     11.065203   10.479513    9.925642    ( 0.0000,  0.0000,  0.0000)
  63 C      9.788183    9.947899    7.006311    ( 0.0000,  0.0000,  0.0000)
  64 C     14.162648   12.424836    9.828769    ( 0.0000,  0.0000,  0.0000)
  65 C     15.484508   10.348464    7.767353    ( 0.0000,  0.0000,  0.0000)
  66 C     15.970686    9.471014    6.870058    ( 0.0000,  0.0000,  0.0000)
  67 C      6.910106   15.688609    6.159155    ( 0.0000,  0.0000,  0.0000)
  68 C      7.237895   17.008390   11.022042    ( 0.0000,  0.0000,  0.0000)
  69 C      6.218956   17.822563   10.507555    ( 0.0000,  0.0000,  0.0000)
  70 C      8.105764   15.011289    7.963047    ( 0.0000,  0.0000,  0.0000)
  71 C      7.866379   16.099164   10.203595    ( 0.0000,  0.0000,  0.0000)
  72 C      5.857467   17.737661    9.176731    ( 0.0000,  0.0000,  0.0000)
  73 C      6.251256   16.666795    6.870523    ( 0.0000,  0.0000,  0.0000)
  74 C      7.509060   15.979584    8.835793    ( 0.0000,  0.0000,  0.0000)
  75 C      6.501691   16.833884    8.273636    ( 0.0000,  0.0000,  0.0000)
  76 N      9.356881   10.806417    8.034297    ( 0.0000,  0.0000,  0.0000)
  77 N      8.627936    7.988101    7.454513    ( 0.0000,  0.0000,  0.0000)
  78 N     12.421805   10.705040   10.062394    ( 0.0000,  0.0000,  0.0000)
  79 N     14.139089   13.631529    9.184805    ( 0.0000,  0.0000,  0.0000)
  80 C      6.002924   18.501723    5.492656    ( 0.0000,  0.0000,  0.0000)
  81 C      4.683031    6.616057    9.179961    ( 0.0000,  0.0000,  0.0000)
  82 C      5.951263    4.742669    8.123446    ( 0.0000,  0.0000,  0.0000)
  83 C      6.662871    5.667126   10.374847    ( 0.0000,  0.0000,  0.0000)
  84 C     13.147561    7.674267    5.038469    ( 0.0000,  0.0000,  0.0000)
  85 C     17.423907   13.817795   10.136633    ( 0.0000,  0.0000,  0.0000)
  86 C     17.638467   15.261700   10.453352    ( 0.0000,  0.0000,  0.0000)
  87 C      6.061470    5.980842    9.004297    ( 0.0000,  0.0000,  0.0000)
  88 C      8.435728   11.896877    7.633382    ( 0.0000,  0.0000,  0.0000)
  89 C      9.314619   12.242918    9.862348    ( 0.0000,  0.0000,  0.0000)
  90 C     16.319452    7.123390    6.117443    ( 0.0000,  0.0000,  0.0000)
  91 C     14.458935    8.467347    5.052360    ( 0.0000,  0.0000,  0.0000)
  92 C     13.157475   11.308874    7.675458    ( 0.0000,  0.0000,  0.0000)
  93 C     11.725561    6.606126    7.536392    ( 0.0000,  0.0000,  0.0000)
  94 C     12.036345    8.405318    5.812234    ( 0.0000,  0.0000,  0.0000)
  95 C     16.298856   14.607473   10.732485    ( 0.0000,  0.0000,  0.0000)
  96 C     10.271684   11.408396    9.024763    ( 0.0000,  0.0000,  0.0000)
  97 C     14.109126   10.306869    8.277002    ( 0.0000,  0.0000,  0.0000)
  98 C     10.016181    8.474593    7.443980    ( 0.0000,  0.0000,  0.0000)
  99 C      8.432816   12.887146    8.816972    ( 0.0000,  0.0000,  0.0000)
 100 C     15.299285    8.236424    6.342909    ( 0.0000,  0.0000,  0.0000)
 101 C     13.372596   11.319708    9.163290    ( 0.0000,  0.0000,  0.0000)
 102 C     11.000493    7.581127    6.598076    ( 0.0000,  0.0000,  0.0000)
 103 S     14.990966   15.075870    9.639015    ( 0.0000,  0.0000,  0.0000)

Unit cell:
           periodic     x           y           z      points  spacing
  1. axis:    no    22.263100    0.000000    0.000000   105     0.2120
  2. axis:    no     0.000000   23.227700    0.000000   108     0.2151
  3. axis:    no     0.000000    0.000000   16.073700    75     0.2143

  Lengths:  22.263100  23.227700  16.073700
  Angles:   90.000000  90.000000  90.000000

Effective grid spacing dv^(1/3) = 0.2138

                     log10-error:    total        iterations:
           time      wfs    density  energy       poisson
iter:   1  20:52:31  -2.47         -602.924119           
iter:   2  20:54:47  -3.86  -2.48  -602.913836           
iter:   3  20:57:01  -3.18  -2.50  -602.879309           
iter:   4  20:59:17  -4.45  -2.81  -602.877660           
iter:   5  21:01:33  -4.51  -2.80  -602.877153           
iter:   6  21:03:48  -4.11  -2.91  -602.873597           
iter:   7  21:06:05  -5.39  -3.24  -602.873020           
iter:   8  21:08:19  -5.79  -3.51  -602.872994           
iter:   9  21:10:33  -6.48  -3.74  -602.872995           
iter:  10  21:12:49  -5.81  -3.76  -602.873019           
iter:  11  21:15:05  -7.42  -3.98  -602.873003           
iter:  12  21:17:20  -6.18  -4.02  -602.872982           
iter:  13  21:19:36  -6.81  -4.11  -602.872983           
iter:  14  21:21:48  -8.18  -4.36  -602.872981           

Converged after 14 iterations.

Dipole moment: (0.415472, 0.508077, 0.188563) |e|*Ang

Energy contributions relative to reference atoms: (reference = -88863.224025)

Kinetic:       +444.931546
Potential:     -464.334584
External:        +0.000000
XC:            -582.275011
Entropy (-ST):   +0.000000
Local:           -1.194932
--------------------------
Free energy:   -602.872981
Extrapolated:  -602.872981

 Band  Eigenvalues  Occupancy
    0    -27.88965    2.00000
    1    -26.75137    2.00000
    2    -26.71104    2.00000
    3    -26.35771    2.00000
    4    -26.19433    2.00000
    5    -25.95385    2.00000
    6    -25.81843    2.00000
    7    -25.06834    2.00000
    8    -24.55847    2.00000
    9    -23.57380    2.00000
   10    -23.53769    2.00000
   11    -23.26103    2.00000
   12    -23.08070    2.00000
   13    -22.66980    2.00000
   14    -21.98872    2.00000
   15    -21.91076    2.00000
   16    -21.38265    2.00000
   17    -20.64546    2.00000
   18    -19.90896    2.00000
   19    -19.75553    2.00000
   20    -19.45409    2.00000
   21    -19.28771    2.00000
   22    -19.12154    2.00000
   23    -18.63472    2.00000
   24    -18.39907    2.00000
   25    -18.21659    2.00000
   26    -17.76148    2.00000
   27    -17.70215    2.00000
   28    -17.53853    2.00000
   29    -17.03625    2.00000
   30    -16.68722    2.00000
   31    -16.60018    2.00000
   32    -16.30829    2.00000
   33    -16.23506    2.00000
   34    -15.94146    2.00000
   35    -15.84223    2.00000
   36    -15.80380    2.00000
   37    -15.53376    2.00000
   38    -15.41132    2.00000
   39    -15.36415    2.00000
   40    -14.88614    2.00000
   41    -14.80296    2.00000
   42    -14.72488    2.00000
   43    -14.45216    2.00000
   44    -14.33660    2.00000
   45    -13.99781    2.00000
   46    -13.96436    2.00000
   47    -13.80483    2.00000
   48    -13.50680    2.00000
   49    -13.39791    2.00000
   50    -13.24575    2.00000
   51    -13.18941    2.00000
   52    -12.97665    2.00000
   53    -12.86243    2.00000
   54    -12.81632    2.00000
   55    -12.46134    2.00000
   56    -12.43213    2.00000
   57    -12.29401    2.00000
   58    -12.17966    2.00000
   59    -12.08263    2.00000
   60    -11.97769    2.00000
   61    -11.74073    2.00000
   62    -11.69434    2.00000
   63    -11.48939    2.00000
   64    -11.32829    2.00000
   65    -11.23736    2.00000
   66    -11.09675    2.00000
   67    -11.06780    2.00000
   68    -10.92815    2.00000
   69    -10.89529    2.00000
   70    -10.83422    2.00000
   71    -10.73739    2.00000
   72    -10.71931    2.00000
   73    -10.65425    2.00000
   74    -10.55967    2.00000
   75    -10.52765    2.00000
   76    -10.42590    2.00000
   77    -10.37739    2.00000
   78    -10.23287    2.00000
   79    -10.19477    2.00000
   80    -10.14517    2.00000
   81    -10.06292    2.00000
   82     -9.99896    2.00000
   83     -9.96668    2.00000
   84     -9.94780    2.00000
   85     -9.87808    2.00000
   86     -9.83028    2.00000
   87     -9.71393    2.00000
   88     -9.58284    2.00000
   89     -9.54855    2.00000
   90     -9.47113    2.00000
   91     -9.43800    2.00000
   92     -9.24444    2.00000
   93     -9.09168    2.00000
   94     -9.07891    2.00000
   95     -8.98016    2.00000
   96     -8.93794    2.00000
   97     -8.88262    2.00000
   98     -8.85820    2.00000
   99     -8.75791    2.00000
  100     -8.73406    2.00000
  101     -8.67188    2.00000
  102     -8.61442    2.00000
  103     -8.57079    2.00000
  104     -8.47741    2.00000
  105     -8.45692    2.00000
  106     -8.20573    2.00000
  107     -8.16238    2.00000
  108     -8.14465    2.00000
  109     -8.10292    2.00000
  110     -8.03823    2.00000
  111     -8.01536    2.00000
  112     -7.95474    2.00000
  113     -7.90080    2.00000
  114     -7.87851    2.00000
  115     -7.78434    2.00000
  116     -7.77208    2.00000
  117     -7.72219    2.00000
  118     -7.68212    2.00000
  119     -7.63762    2.00000
  120     -7.54943    2.00000
  121     -7.44090    2.00000
  122     -7.36757    2.00000
  123     -7.33054    2.00000
  124     -7.23857    2.00000
  125     -7.08224    2.00000
  126     -7.04877    2.00000
  127     -6.93273    2.00000
  128     -6.90530    2.00000
  129     -6.85643    2.00000
  130     -6.65659    2.00000
  131     -6.62091    2.00000
  132     -6.41412    2.00000
  133     -6.30646    2.00000
  134     -6.24031    2.00000
  135     -6.18557    2.00000
  136     -6.12797    2.00000
  137     -6.10526    2.00000
  138     -5.87438    2.00000
  139     -5.68356    2.00000
  140     -5.55635    2.00000
  141     -5.45101    2.00000
  142     -5.32734    2.00000
  143     -5.26748    2.00000
  144     -5.19857    2.00000
  145     -5.05814    2.00000
  146     -5.01180    2.00000
  147     -2.10652    0.00000
  148     -1.49494    0.00000
  149     -1.37207    0.00000
  150     -1.07378    0.00000
  151     -0.83339    0.00000
  152     -0.49767    0.00000
  153     -0.29239    0.00000
  154     -0.25282    0.00000
  155     -0.20578    0.00000
  156     -0.12410    0.00000
  157     -0.02323    0.00000
  158      0.08337    0.00000
  159      0.14309    0.00000
  160      0.15696    0.00000
  161      0.20872    0.00000
  162      0.25999    0.00000
  163      0.37698    0.00000
  164      0.41947    0.00000
  165      0.42737    0.00000
  166      0.52692    0.00000
  167      0.57722    0.00000
  168      0.59704    0.00000
  169      0.64664    0.00000
  170      0.70253    0.00000
  171      0.71996    0.00000
  172      0.77448    0.00000
  173      0.80811    0.00000
  174      0.83051    0.00000
  175      0.87905    0.00000
  176      0.88550    0.00000
  177      0.91612    0.00000
  178      0.94605    0.00000
  179      0.98287    0.00000
  180      1.00069    0.00000

Fermi level: -3.55916

Gap: 2.905 eV
Transition (v -> c):
  (s=0, k=0, n=146, [0.00, 0.00, 0.00]) -> (s=0, k=0, n=147, [0.00, 0.00, 0.00])

Forces in eV/Ang:
  0 H     0.21629    0.27615    0.02117
  1 H    -0.01437   -0.05126   -0.01676
  2 H    -0.08492    0.10457    0.12305
  3 H    -0.02483   -0.02393   -0.06100
  4 H    -0.07599    0.00924   -0.15694
  5 H     0.27316   -0.26811   -0.01771
  6 H     0.07779    0.08147   -0.01751
  7 H    -0.01410    0.37291   -0.27299
  8 H     0.25827   -0.27210    0.31764
  9 H     0.09527    0.00555    0.06872
 10 H    -0.02633   -0.07867   -0.04254
 11 H    -0.25823    0.05775   -0.00568
 12 H     0.07825    0.03272    0.09224
 13 H     0.00658   -0.03108   -0.11964
 14 H     0.10700    0.08685   -0.06800
 15 H    -0.10331    0.06199   -0.00684
 16 H     0.00827    0.03845   -0.03934
 17 H     0.16115    0.00574    0.09663
 18 H    -0.10456    0.04111   -0.03514
 19 H    -0.04164    0.07391   -0.01264
 20 H     0.12675   -0.06245   -0.12913
 21 H    -0.00536   -0.06500   -0.07675
 22 H     0.00683    0.07549    0.02462
 23 H    -0.09620    0.01203   -0.07045
 24 H    -0.01657   -0.06254    0.11580
 25 H    -0.16915    0.08040    0.10740
 26 H    -0.02745    0.01911   -0.10152
 27 H    -0.08984    0.21078   -0.01832
 28 H    -0.04315    0.08057   -0.14649
 29 H    -0.07124    0.14236    0.01993
 30 H     0.08321   -0.22173    0.04917
 31 H     0.00684    0.02757    0.01355
 32 H     0.03700   -0.07473    0.06428
 33 H     0.02575    0.02992   -0.02043
 34 H    -0.03901   -0.08712    0.01871
 35 H     0.07604    0.04386    0.04173
 36 H    -0.45484   -0.12323    0.02780
 37 H    -0.01609   -0.12219    0.35514
 38 H    -0.17250    0.01650   -0.05962
 39 H     0.06136    0.03843   -0.00162
 40 H     0.03682   -0.01975   -0.04540
 41 H    -0.16169    0.13196    0.06212
 42 H    -0.00901   -0.04027   -0.04059
 43 H    -0.21198    0.01055   -0.37874
 44 H     0.02553   -0.01502    0.21888
 45 H    -0.15685    0.12092   -0.08742
 46 H     0.08741    0.07710   -0.12131
 47 H     0.21661    0.06272   -0.13168
 48 H    -0.06555    0.14225   -0.08306
 49 H    -0.09054    0.09090    0.09688
 50 O     0.10534   -0.22302   -0.20046
 51 O     0.06700    0.01348    0.10263
 52 O    -0.01512    0.04251    0.03786
 53 O     0.24714   -0.05308    0.64320
 54 O     0.15278    0.33289   -0.17233
 55 O    -0.04409    0.10119   -0.10445
 56 Cl   -0.09918    0.12995   -0.08078
 57 N     0.17311   -0.02926   -0.11817
 58 O    -0.16904    0.03560   -0.03037
 59 O     0.27813   -0.00244    0.31861
 60 O     0.02835    0.02922    0.52520
 61 C    -0.20366    0.32148    0.08372
 62 C     0.34578   -0.03939   -0.24008
 63 C     0.01977   -0.05726   -0.18893
 64 C    -0.19786   -0.01776   -0.15593
 65 C     0.22381   -0.10326   -0.02159
 66 C     0.29078    0.11092    0.12324
 67 C    -0.05321    0.01120   -0.19184
 68 C     0.07683   -0.02508    0.00253
 69 C     0.03032    0.04250    0.09870
 70 C     0.05559    0.21261    0.14564
 71 C    -0.04519   -0.07348   -0.15155
 72 C    -0.10263    0.05185   -0.11958
 73 C    -0.23313    0.07210    0.19372
 74 C     0.05461   -0.01540   -0.03007
 75 C    -0.04191    0.02002   -0.06323
 76 N    -0.03380   -0.12618    0.09971
 77 N    -0.21904   -0.26309    0.03052
 78 N    -0.05420   -0.07837    0.15802
 79 N     0.35661    0.03137   -0.02089
 80 C     0.03914    0.09621   -0.11319
 81 C    -0.17315   -0.02891    0.08044
 82 C    -0.01707   -0.19599   -0.07627
 83 C    -0.02256   -0.07364    0.15236
 84 C    -0.12742   -0.14032   -0.00304
 85 C     0.26144   -0.07079   -0.17020
 86 C     0.16392   -0.00412   -0.01435
 87 C    -0.09676    0.02073    0.05006
 88 C     0.10830   -0.21293    0.04548
 89 C     0.07373   -0.08550    0.23159
 90 C     0.12586   -0.13228   -0.03199
 91 C     0.06939    0.08128   -0.11014
 92 C    -0.14674    0.08858   -0.20100
 93 C     0.09098   -0.04625    0.08619
 94 C     0.10933    0.16480    0.13376
 95 C     0.18797   -0.11688    0.10624
 96 C     0.19452   -0.05457   -0.00848
 97 C    -0.01143   -0.14574   -0.18328
 98 C     0.16401   -0.04495    0.11422
 99 C    -0.09254   -0.03170    0.04737
100 C    -0.18968   -0.13288    0.09794
101 C     0.17494   -0.17215   -0.09463
102 C    -0.00172   -0.06032   -0.07209
103 S    -0.65790    0.24104    0.16081

System changes: positions 

Initializing position-dependent things.

Density initialized from wave functions
               .------------------------------------------------------.  
              /|                                                      |  
             / |                                                      |  
            /  |                                                      |  
           /   |                                                      |  
          /    |                                                      |  
         /     |                                                      |  
        /      |                                                      |  
       /       |                                                      |  
      /        |          H   H                                       |  
     /         |           C C                                        |  
    /          |                H                H     H              |  
   /           |        ClC   C              O    C   C               |  
  /            |             C   H           O S    CH                |  
 *             |           C  HC           CN    O                    |  
 |             |          CH HC OO C  NH   H        H                 |  
 |             |      H  OHC     C H     C                            |  
 |             | H H        CC N                H                     |  
 |            H|     C H  HH  H H     H H C   C                       |  
 |             | C  C O        C                                      |  
 |             .H--------CON---CH---HH----H---C--H--------------------.  
 |            / H  C           O CC         C  H                     /   
 |           /    H  H         H   HC     H   C                     /    
 |          /                         H   C H   H                  /     
 |         /                         H     H                      /      
 |        /                                                      /       
 |       /                                                      /        
 |      /                                                      /         
 |     /                                                      /          
 |    /                                                      /           
 |   /                                                      /            
 |  /                                                      /             
 | /                                                      /              
 |/                                                      /               
 *------------------------------------------------------*                

Positions:
   0 H     16.109381   11.199606    8.071381    ( 0.0000,  0.0000,  0.0000)
   1 H     16.985935    9.667690    6.496733    ( 0.0000,  0.0000,  0.0000)
   2 H      6.702900   15.554813    5.090790    ( 0.0000,  0.0000,  0.0000)
   3 H      7.527008   17.101985   12.072442    ( 0.0000,  0.0000,  0.0000)
   4 H      5.709955   18.529363   11.168259    ( 0.0000,  0.0000,  0.0000)
   5 H      8.653386   15.461602   10.611262    ( 0.0000,  0.0000,  0.0000)
   6 H      7.885085    8.697533    7.345064    ( 0.0000,  0.0000,  0.0000)
   7 H     12.823671   10.049916   10.753839    ( 0.0000,  0.0000,  0.0000)
   8 H     13.549450   13.812451    8.356769    ( 0.0000,  0.0000,  0.0000)
   9 H      6.500581   18.103896    4.586094    ( 0.0000,  0.0000,  0.0000)
  10 H      6.746773   19.019528    6.127206    ( 0.0000,  0.0000,  0.0000)
  11 H      5.237990   19.231917    5.182839    ( 0.0000,  0.0000,  0.0000)
  12 H      4.736878    7.536380    9.785861    ( 0.0000,  0.0000,  0.0000)
  13 H      4.236152    6.879970    8.206555    ( 0.0000,  0.0000,  0.0000)
  14 H      4.007032    5.909157    9.687136    ( 0.0000,  0.0000,  0.0000)
  15 H      5.517796    4.997461    7.140255    ( 0.0000,  0.0000,  0.0000)
  16 H      5.294008    3.999558    8.608089    ( 0.0000,  0.0000,  0.0000)
  17 H      6.931484    4.269495    7.947552    ( 0.0000,  0.0000,  0.0000)
  18 H      6.850398    6.589726   10.951327    ( 0.0000,  0.0000,  0.0000)
  19 H      5.953386    5.043576   10.946279    ( 0.0000,  0.0000,  0.0000)
  20 H      7.612235    5.118018   10.303369    ( 0.0000,  0.0000,  0.0000)
  21 H     12.815065    7.537582    3.993750    ( 0.0000,  0.0000,  0.0000)
  22 H     13.335835    6.656399    5.426078    ( 0.0000,  0.0000,  0.0000)
  23 H     17.356809   13.545023    9.079486    ( 0.0000,  0.0000,  0.0000)
  24 H     17.880067   13.053967   10.774191    ( 0.0000,  0.0000,  0.0000)
  25 H     18.256091   15.508326   11.321908    ( 0.0000,  0.0000,  0.0000)
  26 H     17.703207   15.970082    9.623286    ( 0.0000,  0.0000,  0.0000)
  27 H      8.760025   12.373606    6.695932    ( 0.0000,  0.0000,  0.0000)
  28 H      7.438384   11.447182    7.477710    ( 0.0000,  0.0000,  0.0000)
  29 H      9.847403   12.977604   10.483590    ( 0.0000,  0.0000,  0.0000)
  30 H      8.716252   11.589515   10.516671    ( 0.0000,  0.0000,  0.0000)
  31 H     15.825995    6.184446    5.807305    ( 0.0000,  0.0000,  0.0000)
  32 H     16.897039    6.919301    7.035777    ( 0.0000,  0.0000,  0.0000)
  33 H     17.036988    7.400873    5.322612    ( 0.0000,  0.0000,  0.0000)
  34 H     14.241788    9.544729    4.923941    ( 0.0000,  0.0000,  0.0000)
  35 H     15.071579    8.179200    4.175831    ( 0.0000,  0.0000,  0.0000)
  36 H     12.226436   10.955658    7.219155    ( 0.0000,  0.0000,  0.0000)
  37 H     13.633156   12.085801    7.066191    ( 0.0000,  0.0000,  0.0000)
  38 H     11.052392    6.137209    8.267979    ( 0.0000,  0.0000,  0.0000)
  39 H     12.209371    5.791670    6.974244    ( 0.0000,  0.0000,  0.0000)
  40 H     12.513308    7.137752    8.106048    ( 0.0000,  0.0000,  0.0000)
  41 H     11.534191    9.070532    5.093516    ( 0.0000,  0.0000,  0.0000)
  42 H     12.530079    9.068895    6.547373    ( 0.0000,  0.0000,  0.0000)
  43 H     16.002420   14.429564   11.766486    ( 0.0000,  0.0000,  0.0000)
  44 H     10.948884   12.098451    8.481387    ( 0.0000,  0.0000,  0.0000)
  45 H     13.711611    9.294353    8.425861    ( 0.0000,  0.0000,  0.0000)
  46 H     10.365419    8.465220    8.497507    ( 0.0000,  0.0000,  0.0000)
  47 H      7.409379   13.057633    9.197411    ( 0.0000,  0.0000,  0.0000)
  48 H     14.606570    7.864804    7.125627    ( 0.0000,  0.0000,  0.0000)
  49 H     10.393289    6.998975    5.881834    ( 0.0000,  0.0000,  0.0000)
  50 O      8.854382    5.895149    8.430429    ( 0.0000,  0.0000,  0.0000)
  51 O     10.522099    9.605012   10.601743    ( 0.0000,  0.0000,  0.0000)
  52 O      9.702003   10.282472    5.817477    ( 0.0000,  0.0000,  0.0000)
  53 O     14.787736   12.236555   10.885689    ( 0.0000,  0.0000,  0.0000)
[...]
  53 O     14.781037   12.212247   10.950006    ( 0.0000,  0.0000,  0.0000)
  54 O     14.001974   15.900816   10.312638    ( 0.0000,  0.0000,  0.0000)
  55 O     15.492619   15.517671    8.316845    ( 0.0000,  0.0000,  0.0000)
  56 Cl     4.750677   19.093847    8.544305    ( 0.0000,  0.0000,  0.0000)
  57 N      7.788519   14.863966    6.706936    ( 0.0000,  0.0000,  0.0000)
  58 O      5.269226   17.448629    6.183048    ( 0.0000,  0.0000,  0.0000)
  59 O      6.963963    7.056377    8.372828    ( 0.0000,  0.0000,  0.0000)
  60 O      8.925434   14.190235    8.598491    ( 0.0000,  0.0000,  0.0000)
  61 C      8.288144    6.840838    8.124202    ( 0.0000,  0.0000,  0.0000)
  62 C     11.176237   10.445402    9.975795    ( 0.0000,  0.0000,  0.0000)
  63 C      9.894938    9.888633    6.954236    ( 0.0000,  0.0000,  0.0000)
  64 C     14.216522   12.376080    9.867918    ( 0.0000,  0.0000,  0.0000)
  65 C     15.618656   10.420621    7.707322    ( 0.0000,  0.0000,  0.0000)
  66 C     16.139145    9.486264    6.887449    ( 0.0000,  0.0000,  0.0000)
  67 C      6.887577   15.727195    6.159619    ( 0.0000,  0.0000,  0.0000)
  68 C      7.144896   17.056722   10.999935    ( 0.0000,  0.0000,  0.0000)
  69 C      6.209187   17.947485   10.445445    ( 0.0000,  0.0000,  0.0000)
  70 C      8.040057   15.039926    7.992143    ( 0.0000,  0.0000,  0.0000)
  71 C      7.763923   16.121404   10.201407    ( 0.0000,  0.0000,  0.0000)
  72 C      5.903508   17.907640    9.097424    ( 0.0000,  0.0000,  0.0000)
  73 C      6.243236   16.743919    6.839375    ( 0.0000,  0.0000,  0.0000)
  74 C      7.455993   16.046127    8.823378    ( 0.0000,  0.0000,  0.0000)
  75 C      6.508434   16.949521    8.227796    ( 0.0000,  0.0000,  0.0000)
  76 N      9.713860   10.913513    7.869791    ( 0.0000,  0.0000,  0.0000)
  77 N      8.766288    7.954968    7.485955    ( 0.0000,  0.0000,  0.0000)
  78 N     12.545781   10.558075   10.026983    ( 0.0000,  0.0000,  0.0000)
  79 N     14.212518   13.571763    9.198233    ( 0.0000,  0.0000,  0.0000)
  80 C      5.722896   18.557260    5.405042    ( 0.0000,  0.0000,  0.0000)
  81 C      4.782392    6.688439    9.103192    ( 0.0000,  0.0000,  0.0000)
  82 C      6.060940    4.789966    8.056150    ( 0.0000,  0.0000,  0.0000)
  83 C      6.675236    5.634745   10.371786    ( 0.0000,  0.0000,  0.0000)
  84 C     13.275887    7.755283    5.032472    ( 0.0000,  0.0000,  0.0000)
  85 C     17.534660   13.998544   10.075554    ( 0.0000,  0.0000,  0.0000)
  86 C     17.578131   15.433918   10.504457    ( 0.0000,  0.0000,  0.0000)
  87 C      6.140814    6.000045    8.985533    ( 0.0000,  0.0000,  0.0000)
  88 C      8.889972   12.034104    7.393883    ( 0.0000,  0.0000,  0.0000)
  89 C      9.296707   12.133509    9.801229    ( 0.0000,  0.0000,  0.0000)
  90 C     16.363499    7.065377    6.240981    ( 0.0000,  0.0000,  0.0000)
  91 C     14.614871    8.517357    5.072509    ( 0.0000,  0.0000,  0.0000)
  92 C     13.170031   11.296505    7.684154    ( 0.0000,  0.0000,  0.0000)
  93 C     11.742293    6.480368    7.398211    ( 0.0000,  0.0000,  0.0000)
  94 C     12.199373    8.451217    5.886203    ( 0.0000,  0.0000,  0.0000)
  95 C     16.306849   14.631106   10.668125    ( 0.0000,  0.0000,  0.0000)
  96 C     10.426243   11.412084    9.064099    ( 0.0000,  0.0000,  0.0000)
  97 C     14.222316   10.335182    8.181582    ( 0.0000,  0.0000,  0.0000)
  98 C     10.159315    8.446184    7.443647    ( 0.0000,  0.0000,  0.0000)
  99 C      8.512749   12.811436    8.667911    ( 0.0000,  0.0000,  0.0000)
 100 C     15.415835    8.259917    6.388309    ( 0.0000,  0.0000,  0.0000)
 101 C     13.471055   11.250566    9.158239    ( 0.0000,  0.0000,  0.0000)
 102 C     11.108107    7.584740    6.540793    ( 0.0000,  0.0000,  0.0000)
 103 S     14.970552   15.081300    9.604381    ( 0.0000,  0.0000,  0.0000)

Unit cell:
           periodic     x           y           z      points  spacing
  1. axis:    no    22.263100    0.000000    0.000000   105     0.2120
  2. axis:    no     0.000000   23.227700    0.000000   108     0.2151
  3. axis:    no     0.000000    0.000000   16.073700    75     0.2143

  Lengths:  22.263100  23.227700  16.073700
  Angles:   90.000000  90.000000  90.000000

Effective grid spacing dv^(1/3) = 0.2138

                     log10-error:    total        iterations:
           time      wfs    density  energy       poisson
iter:   1  09:32:55  -2.99         -603.598194           
iter:   2  09:35:12  -4.37  -2.76  -603.597796           
iter:   3  09:37:30  -4.20  -2.77  -603.592384           
iter:   4  09:39:48  -5.18  -3.12  -603.592366           
iter:   5  09:42:07  -5.16  -3.17  -603.592173           
iter:   6  09:44:23  -5.27  -3.32  -603.592080           
iter:   7  09:46:40  -6.12  -3.55  -603.592005           
iter:   8  09:48:57  -6.02  -3.75  -603.591993           
iter:   9  09:51:14  -6.88  -4.05  -603.591985           
iter:  10  09:53:29  -6.87  -4.09  -603.591983           
iter:  11  09:55:45  -8.00  -4.50  -603.591982           

Converged after 11 iterations.

Dipole moment: (0.566337, 0.490275, 0.161723) |e|*Ang

Energy contributions relative to reference atoms: (reference = -88863.224025)

Kinetic:       +440.556078
Potential:     -461.002197
External:        +0.000000
XC:            -581.817406
Entropy (-ST):   +0.000000
Local:           -1.328457
--------------------------
Free energy:   -603.591982
Extrapolated:  -603.591982

 Band  Eigenvalues  Occupancy
    0    -27.94009    2.00000
    1    -26.78020    2.00000
    2    -26.70171    2.00000
    3    -26.28999    2.00000
    4    -26.23641    2.00000
    5    -25.93023    2.00000
    6    -25.74230    2.00000
    7    -25.11604    2.00000
    8    -24.49725    2.00000
    9    -23.70004    2.00000
   10    -23.56263    2.00000
   11    -23.20539    2.00000
   12    -23.19711    2.00000
   13    -22.64429    2.00000
   14    -21.92954    2.00000
   15    -21.89926    2.00000
   16    -21.45376    2.00000
   17    -20.61246    2.00000
   18    -19.97020    2.00000
   19    -19.73466    2.00000
   20    -19.50550    2.00000
   21    -19.25518    2.00000
   22    -19.15255    2.00000
   23    -18.72593    2.00000
   24    -18.43867    2.00000
   25    -18.21962    2.00000
   26    -17.83606    2.00000
   27    -17.69238    2.00000
   28    -17.60963    2.00000
   29    -17.05581    2.00000
   30    -16.68539    2.00000
   31    -16.61888    2.00000
   32    -16.32281    2.00000
   33    -16.22396    2.00000
   34    -16.06147    2.00000
   35    -15.90276    2.00000
   36    -15.81780    2.00000
   37    -15.57345    2.00000
   38    -15.44579    2.00000
   39    -15.39371    2.00000
   40    -14.93442    2.00000
   41    -14.86217    2.00000
   42    -14.80437    2.00000
   43    -14.53218    2.00000
   44    -14.43563    2.00000
   45    -13.99100    2.00000
   46    -13.93519    2.00000
   47    -13.80863    2.00000
   48    -13.60336    2.00000
   49    -13.45566    2.00000
   50    -13.28967    2.00000
   51    -13.18047    2.00000
   52    -12.94746    2.00000
   53    -12.88515    2.00000
   54    -12.84903    2.00000
   55    -12.61643    2.00000
   56    -12.38723    2.00000
   57    -12.25552    2.00000
   58    -12.20368    2.00000
   59    -12.08969    2.00000
   60    -11.97162    2.00000
   61    -11.79284    2.00000
   62    -11.69010    2.00000
   63    -11.52042    2.00000
   64    -11.37169    2.00000
   65    -11.14640    2.00000
   66    -11.11305    2.00000
   67    -11.02404    2.00000
   68    -11.00869    2.00000
   69    -10.94318    2.00000
   70    -10.85308    2.00000
   71    -10.84284    2.00000
   72    -10.73863    2.00000
   73    -10.62589    2.00000
   74    -10.57867    2.00000
   75    -10.49536    2.00000
   76    -10.38193    2.00000
   77    -10.32136    2.00000
   78    -10.29389    2.00000
   79    -10.19504    2.00000
   80    -10.14528    2.00000
   81    -10.08734    2.00000
   82    -10.04849    2.00000
   83    -10.01075    2.00000
   84     -9.97811    2.00000
   85     -9.83646    2.00000
   86     -9.82753    2.00000
   87     -9.71026    2.00000
   88     -9.63081    2.00000
   89     -9.60850    2.00000
   90     -9.49259    2.00000
   91     -9.42571    2.00000
   92     -9.36586    2.00000
   93     -9.10575    2.00000
   94     -9.04795    2.00000
   95     -8.97469    2.00000
   96     -8.94335    2.00000
   97     -8.90846    2.00000
   98     -8.85250    2.00000
   99     -8.80934    2.00000
  100     -8.70891    2.00000
  101     -8.67748    2.00000
  102     -8.65545    2.00000
  103     -8.61351    2.00000
  104     -8.46861    2.00000
  105     -8.42710    2.00000
  106     -8.27349    2.00000
  107     -8.23051    2.00000
  108     -8.16719    2.00000
  109     -8.11657    2.00000
  110     -8.06777    2.00000
  111     -8.01216    2.00000
  112     -7.99792    2.00000
  113     -7.95026    2.00000
  114     -7.88421    2.00000
  115     -7.77691    2.00000
  116     -7.71129    2.00000
  117     -7.67527    2.00000
  118     -7.65771    2.00000
  119     -7.62570    2.00000
  120     -7.55376    2.00000
  121     -7.52811    2.00000
  122     -7.41637    2.00000
  123     -7.33246    2.00000
  124     -7.23774    2.00000
  125     -7.14207    2.00000
  126     -7.01743    2.00000
  127     -6.99090    2.00000
  128     -6.97818    2.00000
  129     -6.86379    2.00000
  130     -6.75757    2.00000
  131     -6.57770    2.00000
  132     -6.44195    2.00000
  133     -6.42396    2.00000
  134     -6.36886    2.00000
  135     -6.28597    2.00000
  136     -6.09895    2.00000
  137     -5.98684    2.00000
  138     -5.95193    2.00000
  139     -5.80403    2.00000
  140     -5.56596    2.00000
  141     -5.44220    2.00000
  142     -5.32567    2.00000
  143     -5.30106    2.00000
  144     -5.25407    2.00000
  145     -5.06033    2.00000
  146     -4.97730    2.00000
  147     -2.03336    0.00000
  148     -1.44515    0.00000
  149     -1.19925    0.00000
  150     -0.99800    0.00000
  151     -0.90703    0.00000
  152     -0.58376    0.00000
  153     -0.29132    0.00000
  154     -0.17898    0.00000
  155     -0.16352    0.00000
  156     -0.12139    0.00000
  157     -0.04656    0.00000
  158      0.06400    0.00000
  159      0.12193    0.00000
  160      0.16250    0.00000
  161      0.26871    0.00000
  162      0.29190    0.00000
  163      0.32883    0.00000
  164      0.37818    0.00000
  165      0.41662    0.00000
  166      0.53296    0.00000
  167      0.58559    0.00000
  168      0.60352    0.00000
  169      0.67035    0.00000
  170      0.69787    0.00000
  171      0.72033    0.00000
  172      0.75256    0.00000
  173      0.80811    0.00000
  174      0.82503    0.00000
  175      0.86043    0.00000
  176      0.89031    0.00000
  177      0.90184    0.00000
  178      0.94052    0.00000
  179      0.97503    0.00000
  180      0.99086    0.00000

Fermi level: -3.50533

Gap: 2.944 eV
Transition (v -> c):
  (s=0, k=0, n=146, [0.00, 0.00, 0.00]) -> (s=0, k=0, n=147, [0.00, 0.00, 0.00])

Forces in eV/Ang:
  0 H    -0.00224   -0.01021    0.00897
  1 H    -0.00931    0.00638    0.00444
  2 H    -0.00363    0.00344   -0.00408
  3 H     0.00482   -0.00242    0.01331
  4 H     0.01061    0.00797   -0.00400
  5 H     0.01301   -0.00387    0.00411
  6 H    -0.00985   -0.00229   -0.00926
  7 H     0.01778    0.00700    0.03002
  8 H     0.01110    0.00482   -0.00418
  9 H     0.02731   -0.01878   -0.01858
 10 H     0.03228    0.00289    0.01033
 11 H    -0.00329    0.00442   -0.01540
 12 H    -0.01153   -0.01173   -0.02235
 13 H    -0.00141   -0.00885    0.01613
 14 H     0.00402   -0.01229   -0.00254
 15 H     0.00178   -0.00797    0.00277
 16 H     0.00355   -0.00384    0.00382
 17 H    -0.00872    0.00011    0.00068
 18 H     0.00579   -0.00936   -0.01020
 19 H     0.00041    0.00567   -0.01359
 20 H    -0.01677    0.00203   -0.00147
 21 H     0.01321   -0.01127   -0.01098
 22 H     0.00203   -0.00247   -0.00101
 23 H     0.00449    0.00633   -0.00497
 24 H    -0.00809   -0.00322   -0.00035
 25 H    -0.00486    0.00820    0.00418
 26 H     0.01042    0.01222    0.00284
 27 H     0.02591    0.03173   -0.02274
 28 H     0.00518   -0.03512    0.00642
 29 H    -0.00434    0.03642    0.00307
 30 H    -0.00789   -0.00896   -0.03270
 31 H     0.00518    0.00427   -0.00455
 32 H     0.01266    0.00083   -0.01555
 33 H    -0.00367    0.00927   -0.01409
 34 H    -0.00328   -0.00488    0.00495
 35 H     0.00881    0.00314    0.00560
 36 H     0.01425    0.01363   -0.00307
 37 H     0.01569   -0.00534    0.00194
 38 H     0.00632    0.00383   -0.01612
 39 H    -0.00616    0.00453   -0.00429
 40 H     0.00331   -0.03327   -0.01726
 41 H     0.01224   -0.01177    0.00833
 42 H     0.00793   -0.00108   -0.00117
 43 H    -0.01251    0.00425    0.00490
 44 H     0.01685    0.03502    0.03064
 45 H     0.00340    0.00415    0.02767
 46 H    -0.00469    0.03539   -0.00439
 47 H     0.01038    0.00199   -0.03811
 48 H    -0.00909   -0.01419    0.00968
 49 H     0.02476   -0.00280   -0.00290
 50 O    -0.01474    0.01158    0.00194
 51 O    -0.00802    0.00691   -0.01567
 52 O    -0.01152    0.01134   -0.00863
 53 O     0.02243    0.00238    0.01692
 54 O     0.01184    0.01095   -0.00121
 55 O     0.00378    0.01196   -0.01253
 56 Cl   -0.01265   -0.00653    0.00134
 57 N     0.01331   -0.00836   -0.01214
 58 O    -0.01447   -0.01932    0.01767
 59 O    -0.01282    0.02703    0.01658
 60 O     0.01996    0.02403   -0.00491
 61 C    -0.01606    0.01235    0.01220
 62 C     0.01518   -0.00240   -0.00917
 63 C     0.00980    0.01496    0.00305
 64 C     0.00555   -0.00059    0.01607
 65 C    -0.00464   -0.00040   -0.00293
 66 C    -0.00367   -0.00785    0.00623
 67 C    -0.00206   -0.01161    0.00057
 68 C     0.00497   -0.00440    0.00851
 69 C     0.01591    0.00818   -0.00080
 70 C     0.00070   -0.00397   -0.00647
 71 C     0.00426   -0.00967    0.00669
 72 C    -0.00276    0.00299    0.00375
 73 C     0.00710   -0.00942    0.01276
 74 C     0.01097    0.00410   -0.00238
 75 C     0.00432    0.00017    0.00504
 76 N     0.02314    0.03168    0.00810
 77 N     0.00085   -0.00119    0.03710
 78 N     0.01176    0.01003    0.02530
 79 N    -0.00550    0.00355   -0.00388
 80 C     0.00627   -0.02689   -0.00003
 81 C    -0.00447   -0.01560    0.00080
 82 C    -0.00415    0.00312    0.00272
 83 C    -0.01153    0.00577   -0.02331
 84 C     0.00384   -0.00701   -0.00687
 85 C     0.00552   -0.00202   -0.00575
 86 C    -0.01001    0.01154    0.00272
 87 C    -0.00958    0.01140   -0.01172
 88 C     0.03737    0.02381    0.00892
 89 C     0.00366    0.01386    0.00492
 90 C     0.00328    0.01310   -0.00533
 91 C    -0.00159   -0.00084   -0.00369
 92 C     0.01056   -0.00427    0.00210
 93 C    -0.00691    0.00757   -0.02325
 94 C     0.01613   -0.00574   -0.00218
 95 C    -0.00423    0.00120   -0.00200
 96 C     0.01460    0.02034   -0.00436
 97 C    -0.00614    0.00114   -0.00695
 98 C     0.00182    0.00231   -0.01101
 99 C     0.03425    0.01946    0.00593
100 C    -0.00697   -0.00595    0.00805
101 C    -0.00508    0.00630    0.01395
102 C     0.01310   -0.00063   -0.00411
103 S     0.00434    0.01185   -0.00864

Timing:                                      incl.     excl.
-------------------------------------------------------------------
Density initialized from wave functions:  1069.965  1069.957   0.8% |
 Symmetrize density:                         0.008     0.008   0.0% |
Forces:                                   6537.265  6537.265   4.7% |-|
Hamiltonian:                               677.915    18.023   0.0% |
 Atomic:                                     9.819     0.934   0.0% |
  XC Correction:                             8.885     8.885   0.0% |
 Calculate atomic Hamiltonians:            530.395   530.395   0.4% |
 Communicate:                               15.284    15.284   0.0% |
 Initialize Hamiltonian:                     0.003     0.003   0.0% |
 Poisson:                                    0.862     0.862   0.0% |
 XC 3D grid:                               103.528   103.528   0.1% |
LCAO initialization:                        16.045     1.253   0.0% |
 LCAO eigensolver:                           0.399     0.000   0.0% |
  Calculate projections:                     0.001     0.001   0.0% |
  DenseAtomicCorrection:                     0.000     0.000   0.0% |
  Distribute overlap matrix:                 0.350     0.350   0.0% |
  Orbital Layouts:                           0.039     0.039   0.0% |
  Potential matrix:                          0.009     0.009   0.0% |
 LCAO to grid:                              13.651    13.651   0.0% |
 Set positions (LCAO WFS):                   0.743     0.536   0.0% |
  Basic WFS set positions:                   0.007     0.007   0.0% |
  Basis functions set positions:             0.001     0.001   0.0% |
  P tci:                                     0.011     0.011   0.0% |
  ST tci:                                    0.036     0.036   0.0% |
  mktci:                                     0.152     0.152   0.0% |
PWDescriptor:                                0.373     0.373   0.0% |
Redistribute:                                0.404     0.404   0.0% |
SCF-cycle:                               129598.194     3.706   0.0% |
 Davidson:                               109841.974 53239.643  38.1% |--------------|
  Apply H:                                7760.292  7733.857   5.5% |-|
   HMM T:                                   26.435    26.435   0.0% |
  Subspace diag:                         12519.557     0.596   0.0% |
   calc_h_matrix:                         8379.793  1461.828   1.0% |
    Apply H:                              6917.965  6893.091   4.9% |-|
     HMM T:                                 24.874    24.874   0.0% |
   diagonalize:                            689.806   689.806   0.5% |
   rotate_psi:                            3449.362  3449.362   2.5% ||
  calc. matrices:                        29185.874 15341.983  11.0% |---|
   Apply H:                              13843.891 13790.110   9.9% |---|
    HMM T:                                  53.782    53.782   0.0% |
  diagonalize:                             131.247   131.247   0.1% |
  rotate_psi:                             7005.360  7005.360   5.0% |-|
 Density:                                11282.436     0.089   0.0% |
  Atomic density matrices:                  14.623    14.623   0.0% |
  Mix:                                    6848.862  6848.862   4.9% |-|
  Multipole moments:                         1.945     1.945   0.0% |
  Pseudo density:                         4416.917  4416.804   3.2% ||
   Symmetrize density:                       0.114     0.114   0.0% |
 Hamiltonian:                             7279.761   191.017   0.1% |
  Atomic:                                  104.892     9.489   0.0% |
   XC Correction:                           95.403    95.403   0.1% |
  Calculate atomic Hamiltonians:          5689.973  5689.973   4.1% |-|
  Communicate:                             166.249   166.249   0.1% |
  Poisson:                                   8.458     8.458   0.0% |
  XC 3D grid:                             1119.173  1119.173   0.8% |
 Orthonormalize:                          1190.317     0.062   0.0% |
  calc_s_matrix:                            47.143    47.143   0.0% |
  inverse-cholesky:                         23.098    23.098   0.0% |
  projections:                            1073.520  1073.520   0.8% |
  rotate_psi_s:                             46.494    46.494   0.0% |
Set symmetry:                                0.003     0.003   0.0% |
Other:                                    1976.896  1976.896   1.4% ||
-------------------------------------------------------------------
Total:                                             139877.058 100.0%

Memory usage: 1.06 GiB
Date: Sun Jul  4 10:12:14 2021
