82
Lattice="31.196 0.0 0.0 0.0 16.0979 0.0 0.0 0.0 16.934" Properties=species:S:1:pos:R:3:forces:R:3:magmoms:R:1 energy=-504.4845063233281 dipole="-1.5547597467319012 1.128189173222914 0.6906168045531712" magmom=0.0 free_energy=-504.4845063233281 pbc="F F F"
H       27.18590526      10.81908177       7.08741984       0.00002892      -0.00242787       0.00111281       0.00000000
H       24.18696945       9.19104518       8.01037696      -0.00228551       0.00399954       0.00722655       0.00000000
H       22.97391330      11.23919209       6.04649864       0.00711261       0.01823161      -0.01350403       0.00000000
H        5.01448042      10.52513137      10.19920997      -0.00598181      -0.01616781       0.00906871       0.00000000
H        7.95014877      10.77030260       6.26027560      -0.00435222      -0.00004216      -0.01963529       0.00000000
H       18.42528183      11.06107605       7.71459620       0.00125252      -0.00791307      -0.00236799       0.00000000
H        5.81035603      12.13058237       6.28022202      -0.00736206       0.00243452      -0.02028921       0.00000000
H       20.67266475      11.87492159       7.01389347      -0.00384425      -0.00053483      -0.01905531       0.00000000
H       12.90865843       5.36269746       7.06871262      -0.01294519      -0.00685242       0.00172094       0.00000000
H       10.47157157       5.49491417       6.57304872       0.00493672       0.02260998       0.01341389       0.00000000
H       12.78690256       9.13684822       9.16580063      -0.00750849       0.01666036       0.00897535       0.00000000
H       17.20148360       9.26236596       8.64744159       0.00576514       0.00191471      -0.00490628       0.00000000
H       14.52862336       8.27600822       9.94977159      -0.01162583       0.00702549       0.00696056       0.00000000
H        9.35595157      11.07334173       9.72205739      -0.01684864       0.01759629       0.00315708       0.00000000
H       10.91439971      11.29230694       8.86675291       0.00439814       0.00259924      -0.01814760       0.00000000
H       10.83182973      10.30710218      10.36006117      -0.00435970       0.00049602       0.02378599       0.00000000
H       20.28112884       6.26214950       5.87924457       0.00367026       0.00826126      -0.01074077       0.00000000
H       21.15544405       4.71939552       6.00289307       0.00277469      -0.01559570       0.01756165       0.00000000
H       21.89033924       6.07235088       5.10111830      -0.00106477       0.00401090      -0.00007946       0.00000000
H       21.30793008       6.08903991       8.13407651      -0.00147228      -0.00202231       0.00240608       0.00000000
H       22.92391621       5.77620703       7.40591195      -0.01354176       0.00757369      -0.00209470       0.00000000
H        8.08640896       4.13407902       5.83355964      -0.01365716       0.00853753      -0.00110031       0.00000000
H        6.36346864       4.04858439       6.22936191       0.00351876       0.01168915       0.00515768       0.00000000
H        7.11238795       5.32184688       3.94109229       0.00054999       0.00310911       0.00844460       0.00000000
H        5.90053238       6.10865724       4.97676519       0.01209810      -0.00677590      -0.00251215       0.00000000
H       18.17466845       6.40573309      11.76022728       0.01540375      -0.00550052       0.00567364       0.00000000
H       16.77748571       6.41118899      12.87388039      -0.01297695       0.00646617      -0.01689364       0.00000000
H        6.64379546       5.61237426       8.03448722      -0.00853583       0.00634602      -0.00463541       0.00000000
H        8.36017183       5.24155664       7.88945978       0.00395950       0.00572785      -0.00064852       0.00000000
H        8.93570614       6.62356021       5.02592465      -0.01318158       0.00380884       0.00393925       0.00000000
H        7.67159875       7.83512557       4.73027607      -0.00221710       0.00217846       0.00198077       0.00000000
H       15.82119735       8.40515521      11.71554283      -0.00188233      -0.01530902      -0.01431921       0.00000000
H       17.49592659       8.76893925      11.19812227      -0.00404692      -0.02258586       0.00036274       0.00000000
H       15.26900853       5.68325462      10.98480880      -0.01635949       0.00703430       0.00531430       0.00000000
H       16.76259543       5.06286631      10.19321969      -0.00504854      -0.02033055       0.01451121       0.00000000
H        6.81382685       7.64853432       6.97360386       0.00124228      -0.00278521      -0.00670266       0.00000000
O       25.57180308      10.77485412       5.50055127       0.00019373      -0.00326820       0.00387818       0.00000000
O       15.03380632       6.01491150       7.82645190       0.01604803      -0.01122158       0.01026662       0.00000000
O       18.22998590       6.25239641       8.70718902      -0.00558736      -0.02928952      -0.02259424       0.00000000
F        4.09901947      12.03176681       8.26415404       0.01844430       0.02256491      -0.00116825       0.00000000
N        6.78351553       9.85379666       9.31296696       0.00244418       0.00160025       0.00976265       0.00000000
N       20.13436949       8.13184862       7.82299956      -0.01544950      -0.00453419       0.00218300       0.00000000
O       26.39695818      10.50216745       7.59736663       0.00557581       0.01223871       0.00935520       0.00000000
O       22.30558339       7.68085608       7.21086416       0.00769039       0.00957816       0.01450151       0.00000000
C       25.39179514      10.45020801       6.67087201      -0.00359644      -0.01428427      -0.00578587       0.00000000
C       14.44361896       6.94219372       8.39496515       0.00914599       0.00078569      -0.01589527       0.00000000
C       17.57776777       7.26130055       8.93602054       0.00522193       0.00565463       0.00102690       0.00000000
C       24.12937388       9.94631088       7.22261182      -0.01630264       0.00097967      -0.01498948       0.00000000
C       22.94546162      10.41181794       6.76758906      -0.03783653      -0.00000768       0.01264192       0.00000000
C        5.65220570      10.58043155       9.30998349      -0.00387340      -0.00142830       0.00971791       0.00000000
C       21.32361503       8.58122656       7.42164589      -0.01775077      -0.01287257      -0.00159612       0.00000000
C        7.56923902       9.91485729       8.21033499       0.00759605      -0.01310351       0.00777037       0.00000000
C       19.12794995       9.00598903       7.95837988      -0.00444514       0.01233986       0.01245119       0.00000000
C        7.26847196      10.73657744       7.11433129       0.00693117       0.00147496       0.00020765       0.00000000
C       19.26879842      10.36850354       7.63938568      -0.01160270      -0.00364024       0.00466469       0.00000000
C        6.09584500      11.48741166       7.11596924      -0.02493528      -0.01569177      -0.02390812       0.00000000
C       20.52526015      10.81467771       7.24372713      -0.01405321       0.00352735      -0.00859819       0.00000000
C       12.31241300       6.20829827       7.41953272      -0.01220577       0.00200314      -0.01886711       0.00000000
C        5.27696651      11.37166584       8.22826449       0.01285501       0.01153225       0.01089342       0.00000000
C       12.98943047       7.20806610       8.15892405      -0.02280919       0.01030221      -0.01040531       0.00000000
C       21.62479469       9.94621768       7.16030270      -0.02751495      -0.01826065       0.02843840       0.00000000
C       10.95854079       6.28970565       7.14626915      -0.00753791       0.00168228       0.01171071       0.00000000
C        8.85662144       7.80994696       7.48556513       0.00797883      -0.02797498       0.01024782       0.00000000
C       12.28459438       8.32794417       8.62563103      -0.02193850       0.00386747       0.01261987       0.00000000
C        8.75839466       9.03029327       8.14120591       0.01983927      -0.01163693       0.00008942       0.00000000
C       10.22611517       7.40184997       7.60500704       0.00130072      -0.01466436      -0.00774259       0.00000000
C       10.91434175       8.40963681       8.34539446       0.00463264       0.00098765      -0.01891940       0.00000000
N       17.91044785       8.53543542       8.46982671      -0.01498485       0.02301424       0.01229371       0.00000000
N       15.12877532       7.75508313       9.29109443       0.00219273      -0.01129346       0.01037568       0.00000000
N        9.99548943       9.39500542       8.66780268       0.01367349      -0.00058285       0.00835312       0.00000000
C       10.29371638      10.57944417       9.43751595       0.00363791       0.01412422       0.01136974       0.00000000
C       21.28036043       5.81418608       5.98138316       0.00183969      -0.00389163       0.00825938       0.00000000
C       21.95205837       6.27412532       7.26094677      -0.00014383       0.01672828       0.00455788       0.00000000
C        7.20157708       4.74837874       6.07969100      -0.00286209       0.01400012       0.00471320       0.00000000
C        6.94672223       5.75149604       4.94284529       0.00596455       0.00056198       0.00234948       0.00000000
C       17.09619338       6.60585239      11.83935460       0.01431082       0.00250786       0.00509046       0.00000000
C        7.48999257       5.61668432       7.32909523      -0.00049822       0.01087394       0.00406695       0.00000000
C        7.89611075       6.90308300       5.27525777      -0.01064086      -0.00043991      -0.00991239       0.00000000
C       16.72398336       7.98334312      11.23787100       0.01870337      -0.02159780       0.04038771       0.00000000
C       16.30453444       5.92174133      10.69849365       0.00072719       0.00380442      -0.00386171       0.00000000
C        7.74193431       7.07229895       6.80614055       0.00650365       0.01064603      -0.01257598       0.00000000
C       16.35492576       7.25933955       9.90639969       0.02993524       0.02977915       0.00283915       0.00000000
