
  ___ ___ ___ _ _ _  
 |   |   |_  | | | | 
 | | | | | . | | | | 
 |__ |  _|___|_____|  21.6.0
 |___|_|             

User:   hanguo02@comput130.ghddi.org
Date:   Sun Jul  4 15:06:28 2021
Arch:   x86_64
Pid:    250257
Python: 3.6.8
gpaw:   /home/hanguo02/.local/lib/python3.6/site-packages/gpaw
_gpaw:  /home/hanguo02/.local/lib/python3.6/site-packages/
        _gpaw.cpython-36m-x86_64-linux-gnu.so
ase:    /home/hanguo02/.local/lib/python3.6/site-packages/ase (version 3.22.0)
numpy:  /usr/lib64/python3.6/site-packages/numpy (version 1.16.2)
scipy:  /usr/lib64/python3.6/site-packages/scipy (version 1.2.1)
libxc:  4.2.0
units:  Angstrom and eV
cores: 32
OpenMP: False
OMP_NUM_THREADS: 1

Input parameters:
  mode: {ecut: 400.0,
         gammacentered: False,
         name: pw}
  xc: PBE

System changes: positions, numbers, cell, pbc, initial_charges, initial_magmoms 

Initialize ...

H-setup:
  name: Hydrogen
  id: d65de229564ff8ea4db303e23b6d1ecf
  Z: 1.0
  valence: 1
  core: 0
  charge: 0.0
  file: /home/hanguo02/Software/GPAW/gpaw-setups-0.9.20000/H.PBE.gz
  compensation charges: gauss, rc=0.15, lmax=2
  cutoffs: 0.85(filt), 0.53(core),
  valence states:
                energy  radius
    1s(1.00)    -6.494   0.476
    *s          20.717   0.476
    *p           0.000   0.476

  Using partial waves for H as LCAO basis

O-setup:
  name: Oxygen
  id: 32ecd46bf208036f09c70b0ec9a88b78
  Z: 8.0
  valence: 6
  core: 2
  charge: 0.0
  file: /home/hanguo02/Software/GPAW/gpaw-setups-0.9.20000/O.PBE.gz
  compensation charges: gauss, rc=0.21, lmax=2
  cutoffs: 1.17(filt), 0.83(core),
  valence states:
                energy  radius
    2s(2.00)   -23.961   0.688
    2p(4.00)    -9.029   0.598
    *s           3.251   0.688
    *p          18.182   0.598
    *d           0.000   0.619

  Using partial waves for O as LCAO basis

F-setup:
  name: Fluorine
  id: 9cd46ba2a61e170ad72278be75b55cc0
  Z: 9.0
  valence: 7
  core: 2
  charge: 0.0
  file: /home/hanguo02/Software/GPAW/gpaw-setups-0.9.20000/F.PBE.gz
  compensation charges: gauss, rc=0.20, lmax=2
  cutoffs: 1.14(filt), 0.74(core),
  valence states:
                energy  radius
    2s(2.00)   -29.898   0.635
    2p(5.00)   -11.110   0.635
    *s          -2.687   0.635
    *p          16.102   0.635
    *d           0.000   0.635

  Using partial waves for F as LCAO basis

Cl-setup:
  name: Chlorine
  id: 726897f06f34e53cf8e33b5885a02604
  Z: 17.0
  valence: 7
  core: 10
  charge: 0.0
  file: /home/hanguo02/Software/GPAW/gpaw-setups-0.9.20000/Cl.PBE.gz
  compensation charges: gauss, rc=0.25, lmax=2
  cutoffs: 1.40(filt), 1.49(core),
  valence states:
                energy  radius
    3s(2.00)   -20.689   0.794
    3p(5.00)    -8.594   0.794
    *s           6.523   0.794
    *p          18.617   0.794
    *d           0.000   0.794

  Using partial waves for Cl as LCAO basis

N-setup:
  name: Nitrogen
  id: f7500608b86eaa90eef8b1d9a670dc53
  Z: 7.0
  valence: 5
  core: 2
  charge: 0.0
  file: /home/hanguo02/Software/GPAW/gpaw-setups-0.9.20000/N.PBE.gz
  compensation charges: gauss, rc=0.18, lmax=2
  cutoffs: 1.11(filt), 0.96(core),
  valence states:
                energy  radius
    2s(2.00)   -18.583   0.603
    2p(3.00)    -7.089   0.529
    *s           8.629   0.603
    *p          20.123   0.529
    *d           0.000   0.577

  Using partial waves for N as LCAO basis

C-setup:
  name: Carbon
  id: 4aa54d4b901d75f77cc0ea3eec22967b
  Z: 6.0
  valence: 4
  core: 2
  charge: 0.0
  file: /home/hanguo02/Software/GPAW/gpaw-setups-0.9.20000/C.PBE.gz
  compensation charges: gauss, rc=0.20, lmax=2
  cutoffs: 1.14(filt), 1.14(core),
  valence states:
                energy  radius
    2s(2.00)   -13.751   0.635
    2p(2.00)    -5.284   0.635
    *s          13.461   0.635
    *p          21.927   0.635
    *d           0.000   0.635

  Using partial waves for C as LCAO basis

Reference energy: -58155.862037

Spin-paired calculation

Convergence criteria:
  Maximum total energy change: 0.0005 eV / electron
  Maximum integral of absolute density change: 0.0001 electrons
  Maximum integral of absolute eigenstate change: 4e-08 eV^2
  Maximum number of iterations: 333

Symmetries present (total): 1

  ( 1  0  0)
  ( 0  1  0)
  ( 0  0  1)

1 k-point (Gamma)
1 k-point in the irreducible part of the Brillouin zone
       k-points in crystal coordinates                weights
   0:     0.00000000    0.00000000    0.00000000          1/1

Wave functions: Plane wave expansion
  Cutoff energy: 400.000 eV
  Number of coefficients: 86169 (reduced to 43085)
  Pulay-stress correction: 0.000000 eV/Ang^3 (de/decut=0.000000)
  Using Numpy's FFT
  ScaLapack parameters: grid=1x1, blocksize=None
  Wavefunction extrapolation:
    Improved wavefunction reuse through dual PAW basis 

Occupation numbers: width=0.000 eV 

Eigensolver
   Davidson(niter=2) 

Densities:
  Coarse grid: 98*64*80 grid
  Fine grid: 196*128*160 grid
  Total Charge: 0.000000 

Density mixing:
  Method: separate
  Backend: pulay
  Linear mixing parameter: 0.05
  Mixing with 5 old densities
  Damping of long wave oscillations: 50 

Hamiltonian:
  XC and Coulomb potentials evaluated on a 196*128*160 grid
  Using the PBE Exchange-Correlation functional
 

XC parameters: PBE with 2 nearest neighbor stencil

Memory estimate:
  Process memory now: 1086.28 MiB
  Calculator: 150.89 MiB
    Density: 10.81 MiB
      Arrays: 3.12 MiB
      Localized functions: 6.48 MiB
      Mixer: 1.22 MiB
    Hamiltonian: 2.24 MiB
      Arrays: 2.04 MiB
      XC: 0.00 MiB
      Poisson: 0.00 MiB
      vbar: 0.20 MiB
    Wavefunctions: 137.84 MiB
      Arrays psit_nG: 61.80 MiB
      Eigensolver: 65.76 MiB
      Projections: 0.01 MiB
      Projectors: 0.38 MiB
      PW-descriptor: 9.89 MiB

Total number of cores used: 32
Domain decomposition: 4 x 2 x 4

Number of atoms: 47
Number of atomic orbitals: 134
Number of bands in calculation: 94
Number of valence electrons: 150
Bands to converge: occupied

... initialized

Initializing position-dependent things.

Density initialized from atomic densities
Creating initial wave functions:
  94 bands from LCAO basis set

          .---------------------------------------------------.  
         /|                                                   |  
        / |                                                   |  
       /  |                                                   |  
      /   |                                                   |  
     /    |                                                   |  
    /     |                                                   |  
   /      |                                                   |  
  /       |              H                                    |  
 *        |               CHH                                 |  
 |        |                                                   |  
 |        |           O C                                     |  
 |        |         N  C O                                    |  
 |        |          C   C      H     H     H                 |  
 |        |                            C  C                   |  
 |        |       HC      HHC  CCN   C      C   Cl            |  
 |        |       CH        C    H     C  C                   |  
 |        |                H         H      Cl                |  
 |        |     CC                                            |  
 |        |    HC                                             |  
 |        .---H-----------------------------------------------.  
 |       /                                                   /   
 |      /                                                   /    
 |     /                                                   /     
 |    /                                                   /      
 |   /                                                   /       
 |  /                                                   /        
 | /                                                   /         
 |/                                                   /          
 *---------------------------------------------------*           

Positions:
   0 H      4.704100    4.000000    6.395700    ( 0.0000,  0.0000,  0.0000)
   1 H      4.000000    5.190000    4.319900    ( 0.0000,  0.0000,  0.0000)
   2 H     15.530100    6.851100    9.327000    ( 0.0000,  0.0000,  0.0000)
   3 H      5.536000    5.280000    8.328400    ( 0.0000,  0.0000,  0.0000)
   4 H      4.965600    8.953400    6.111000    ( 0.0000,  0.0000,  0.0000)
   5 H     13.196000    6.178000    9.437100    ( 0.0000,  0.0000,  0.0000)
   6 H     12.504400    7.937500    5.563800    ( 0.0000,  0.0000,  0.0000)
   7 H      8.241300    8.197200   11.880700    ( 0.0000,  0.0000,  0.0000)
   8 H      7.052500    9.439300   12.288100    ( 0.0000,  0.0000,  0.0000)
   9 H      8.434100    9.841300   11.250100    ( 0.0000,  0.0000,  0.0000)
  10 H      9.382400    4.677000    7.165300    ( 0.0000,  0.0000,  0.0000)
  11 H      9.092400    4.380500    8.884200    ( 0.0000,  0.0000,  0.0000)
  12 H      8.831900    6.836900    6.179800    ( 0.0000,  0.0000,  0.0000)
  13 H      8.218400    8.156500    7.184400    ( 0.0000,  0.0000,  0.0000)
  14 H     10.893900    5.985500    9.506200    ( 0.0000,  0.0000,  0.0000)
  15 H     11.518400    4.724100    8.410100    ( 0.0000,  0.0000,  0.0000)
  16 H     10.601400    8.488800    6.637300    ( 0.0000,  0.0000,  0.0000)
  17 H     10.360700    8.348000    8.387500    ( 0.0000,  0.0000,  0.0000)
  18 O      8.124800    5.990300   10.400900    ( 0.0000,  0.0000,  0.0000)
  19 F      4.069600    7.763600    4.000000    ( 0.0000,  0.0000,  0.0000)
  20 Cl    17.025900    8.252800    7.399400    ( 0.0000,  0.0000,  0.0000)
  21 Cl    15.020000    8.965900    4.938300    ( 0.0000,  0.0000,  0.0000)
  22 N      5.271200    9.153100    8.837000    ( 0.0000,  0.0000,  0.0000)
  23 O      5.925100    9.595000    9.965600    ( 0.0000,  0.0000,  0.0000)
  24 C      7.887600    6.606700    9.364700    ( 0.0000,  0.0000,  0.0000)
  25 C      5.849600    7.991000    8.492600    ( 0.0000,  0.0000,  0.0000)
  26 C      6.911100    8.722700   10.292900    ( 0.0000,  0.0000,  0.0000)
  27 C      4.772100    5.083500    6.335200    ( 0.0000,  0.0000,  0.0000)
  28 C      4.375500    5.743900    5.174700    ( 0.0000,  0.0000,  0.0000)
  29 C     14.870900    7.102500    8.499400    ( 0.0000,  0.0000,  0.0000)
  30 C      5.250000    5.816900    7.426000    ( 0.0000,  0.0000,  0.0000)
  31 C      4.925600    7.870700    6.194200    ( 0.0000,  0.0000,  0.0000)
  32 C     13.525800    6.714800    8.552000    ( 0.0000,  0.0000,  0.0000)
  33 C     13.152100    7.720300    6.410100    ( 0.0000,  0.0000,  0.0000)
  34 C      4.453000    7.130200    5.116200    ( 0.0000,  0.0000,  0.0000)
  35 C     15.358700    7.803800    7.398300    ( 0.0000,  0.0000,  0.0000)
  36 C     14.496100    8.111500    6.346800    ( 0.0000,  0.0000,  0.0000)
  37 C      6.947400    7.706100    9.362300    ( 0.0000,  0.0000,  0.0000)
  38 C      5.340200    7.216700    7.361700    ( 0.0000,  0.0000,  0.0000)
  39 C     12.632900    7.024300    7.516000    ( 0.0000,  0.0000,  0.0000)
  40 N      8.500100    6.274900    8.153600    ( 0.0000,  0.0000,  0.0000)
  41 N     11.280800    6.646800    7.521400    ( 0.0000,  0.0000,  0.0000)
  42 C      7.701700    9.064500   11.490700    ( 0.0000,  0.0000,  0.0000)
  43 C      9.420300    5.134800    8.161000    ( 0.0000,  0.0000,  0.0000)
  44 C      8.892600    7.298300    7.172600    ( 0.0000,  0.0000,  0.0000)
  45 C     10.855900    5.594800    8.481500    ( 0.0000,  0.0000,  0.0000)
  46 C     10.333500    7.793400    7.440200    ( 0.0000,  0.0000,  0.0000)

Unit cell:
           periodic     x           y           z      points  spacing
  1. axis:    no    21.025900    0.000000    0.000000    98     0.2146
  2. axis:    no     0.000000   13.841300    0.000000    64     0.2163
  3. axis:    no     0.000000    0.000000   16.288100    80     0.2036

  Lengths:  21.025900  13.841300  16.288100
  Angles:   90.000000  90.000000  90.000000

Effective grid spacing dv^(1/3) = 0.2114

                     log10-error:    total        iterations:
           time      wfs    density  energy       poisson
iter:   1  15:07:08                -308.190877           
iter:   2  15:07:33  -0.90  -0.77  -305.623975           
iter:   3  15:07:59  -0.73  -0.79  -290.426146           
iter:   4  15:08:25  -1.89  -1.09  -289.930030           
iter:   5  15:08:51  -1.55  -1.15  -288.978839           
iter:   6  15:09:17  -1.35  -1.49  -289.653968           
iter:   7  15:09:43  -2.16  -1.47  -288.573641           
iter:   8  15:10:09  -2.22  -1.77  -288.429854           
iter:   9  15:10:35  -2.72  -2.14  -288.451715           
iter:  10  15:11:02  -2.97  -2.05  -288.395135           
iter:  11  15:11:27  -3.53  -2.62  -288.398392           
iter:  12  15:11:53  -3.45  -2.57  -288.395760           
iter:  13  15:12:17  -4.06  -2.72  -288.392795           
iter:  14  15:12:43  -5.51  -3.13  -288.392471           
iter:  15  15:13:07  -5.49  -3.24  -288.392436           
iter:  16  15:13:33  -4.93  -3.29  -288.392706           
iter:  17  15:13:58  -6.25  -3.23  -288.392521           
iter:  18  15:14:23  -6.36  -3.31  -288.392412           
iter:  19  15:14:49  -6.24  -3.41  -288.392362           
iter:  20  15:15:15  -5.73  -3.63  -288.392323           
iter:  21  15:15:42  -7.21  -3.94  -288.392317           
iter:  22  15:16:08  -6.30  -4.02  -288.392323           
iter:  23  15:16:33  -6.51  -3.97  -288.392310           
iter:  24  15:16:59  -7.78  -4.45  -288.392309           

Converged after 24 iterations.

Dipole moment: (-0.068295, -0.443832, 0.146250) |e|*Ang

Energy contributions relative to reference atoms: (reference = -58155.862037)

Kinetic:       +225.881718
Potential:     -236.755971
External:        +0.000000
XC:            -277.495586
Entropy (-ST):   +0.000000
Local:           -0.022470
--------------------------
Free energy:   -288.392309
Extrapolated:  -288.392309

 Band  Eigenvalues  Occupancy
    0    -30.63526    2.00000
    1    -28.84212    2.00000
    2    -25.90529    2.00000
    3    -23.95075    2.00000
    4    -23.08497    2.00000
    5    -22.24774    2.00000
    6    -21.85397    2.00000
    7    -21.00072    2.00000
    8    -20.96243    2.00000
    9    -20.25615    2.00000
   10    -20.14922    2.00000
   11    -19.08384    2.00000
   12    -18.58259    2.00000
   13    -18.34702    2.00000
   14    -18.25860    2.00000
   15    -17.94472    2.00000
   16    -17.67881    2.00000
   17    -17.01602    2.00000
   18    -16.21927    2.00000
   19    -15.91941    2.00000
   20    -15.56932    2.00000
   21    -15.04703    2.00000
   22    -14.83351    2.00000
   23    -14.72913    2.00000
   24    -14.19267    2.00000
   25    -13.85788    2.00000
   26    -13.18838    2.00000
   27    -13.12147    2.00000
   28    -12.75215    2.00000
   29    -12.20088    2.00000
   30    -11.86587    2.00000
   31    -11.84117    2.00000
   32    -11.75126    2.00000
   33    -11.58355    2.00000
   34    -11.44919    2.00000
   35    -11.34136    2.00000
   36    -11.25347    2.00000
   37    -11.07700    2.00000
   38    -10.96176    2.00000
   39    -10.90909    2.00000
   40    -10.68146    2.00000
   41    -10.43510    2.00000
   42    -10.33076    2.00000
   43    -10.13566    2.00000
   44    -10.07480    2.00000
   45     -9.89892    2.00000
   46     -9.84522    2.00000
   47     -9.73019    2.00000
   48     -9.47333    2.00000
   49     -9.46325    2.00000
   50     -9.33123    2.00000
   51     -9.20133    2.00000
   52     -9.15639    2.00000
   53     -8.95587    2.00000
   54     -8.80400    2.00000
   55     -8.71138    2.00000
   56     -8.65481    2.00000
   57     -8.60470    2.00000
   58     -8.34783    2.00000
   59     -8.33831    2.00000
   60     -7.94715    2.00000
   61     -7.88145    2.00000
   62     -7.72280    2.00000
   63     -7.20600    2.00000
   64     -7.15707    2.00000
   65     -6.82832    2.00000
   66     -6.72851    2.00000
   67     -6.29948    2.00000
   68     -6.19697    2.00000
   69     -5.92775    2.00000
   70     -5.68906    2.00000
   71     -5.64392    2.00000
   72     -5.52603    2.00000
   73     -5.25482    2.00000
   74     -4.56514    2.00000
   75     -1.60106    0.00000
   76     -1.28564    0.00000
   77     -1.16197    0.00000
   78     -0.86906    0.00000
   79     -0.80285    0.00000
   80     -0.44925    0.00000
   81     -0.40501    0.00000
   82     -0.27979    0.00000
   83      0.00888    0.00000
   84      0.18561    0.00000
   85      0.22436    0.00000
   86      0.37675    0.00000
   87      0.48646    0.00000
   88      0.62444    0.00000
   89      0.69907    0.00000
   90      0.76799    0.00000
   91      0.91325    0.00000
   92      0.92105    0.00000
   93      1.12147    0.00000

Fermi level: -3.08310

Gap: 2.964 eV
Transition (v -> c):
  (s=0, k=0, n=74, [0.00, 0.00, 0.00]) -> (s=0, k=0, n=75, [0.00, 0.00, 0.00])

Forces in eV/Ang:
  0 H    -0.02377   -0.19117    0.00360
  1 H    -0.09263   -0.11147   -0.24666
  2 H     0.17334    0.02064    0.06813
  3 H     0.09066    0.02688    0.19581
  4 H     0.05335    0.23676    0.05371
  5 H    -0.14752   -0.11194    0.14171
  6 H    -0.05616    0.06781   -0.16225
  7 H     0.04931   -0.24127   -0.08103
  8 H    -0.16006    0.14785    0.10570
  9 H     0.19613    0.28583    0.02217
 10 H     0.08099   -0.03080   -0.27336
 11 H    -0.08512    0.10284    0.22064
 12 H     0.05667   -0.04686   -0.26569
 13 H    -0.26383    0.09448    0.14880
 14 H    -0.09752   -0.03827    0.45033
 15 H     0.29561    0.02398   -0.10298
 16 H     0.28387   -0.04173   -0.12211
 17 H    -0.09005    0.28773    0.37067
 18 O     0.29177   -0.66056    0.90279
 19 F    -0.13840    0.35729   -0.44295
 20 Cl    0.21046    0.14167   -0.15991
 21 Cl    0.17369    0.05446   -0.05743
 22 N    -0.25722   -0.52148   -0.16039
 23 O     0.32417   -0.41402   -0.23409
 24 C     0.84227   -0.27411   -0.95051
 25 C     0.08798    0.85051    0.15273
 26 C    -0.04558   -0.01221   -0.01069
 27 C     0.09311    0.53440    0.22275
 28 C    -0.07571   -0.09682   -0.15772
 29 C    -0.74649   -0.16801   -0.26077
 30 C    -0.02763   -0.19775   -0.18777
 31 C    -0.10254    0.07098   -0.26010
 32 C     0.44876    0.01791    0.17139
 33 C     0.22502    0.08327    0.07421
 34 C     0.26482   -0.39500    0.84357
 35 C     0.33976   -0.11785    0.39673
 36 C    -0.76893   -0.07135   -0.09888
 37 C    -0.79464    0.82298    0.17996
 38 C    -0.09601   -0.21909   -0.24219
 39 C     0.38357   -0.00468    0.00034
 40 N    -0.08683    0.14609    0.34171
 41 N    -0.55958   -0.02602   -0.31408
 42 C     0.12113   -0.11662    0.00860
 43 C     0.31545    0.59545    0.05472
 44 C     0.48881   -0.30929    0.31624
 45 C    -0.28883    0.59052   -0.57567
 46 C    -0.38700   -1.06364   -0.03835

System changes: positions 

Initializing position-dependent things.

Density initialized from wave functions
          .---------------------------------------------------.  
         /|                                                   |  
        / |                                                   |  
       /  |                                                   |  
      /   |                                                   |  
     /    |                                                   |  
    /     |                                                   |  
   /      |                                                   |  
  /       |              H                                    |  
 *        |               CHH                                 |  
 |        |                                                   |  
 |        |           O C                                     |  
 |        |         N  C O                                    |  
 |        |          C   C      H     H     H                 |  
 |        |                            C  C                   |  
 |        |       HC      HHC  CCN   C      C   Cl            |  
 |        |       CH        C    H     C  C                   |  
 |        |                H         H      Cl                |  
 |        |     CC                                            |  
 |        |    HC                                             |  
 |        .---H-----------------------------------------------.  
 |       /                                                   /   
 |      /                                                   /    
 |     /                                                   /     
 |    /                                                   /      
 |   /                                                   /       
 |  /                                                   /        
 | /                                                   /         
 |/                                                   /          
 *---------------------------------------------------*           

Positions:
   0 H      4.703760    3.997269    6.395751    ( 0.0000,  0.0000,  0.0000)
   1 H      3.998677    5.188408    4.316376    ( 0.0000,  0.0000,  0.0000)
   2 H     15.532576    6.851395    9.327973    ( 0.0000,  0.0000,  0.0000)
   3 H      5.537295    5.280384    8.331197    ( 0.0000,  0.0000,  0.0000)
   4 H      4.966362    8.956782    6.111767    ( 0.0000,  0.0000,  0.0000)
   5 H     13.193893    6.176401    9.439124    ( 0.0000,  0.0000,  0.0000)
   6 H     12.503598    7.938469    5.561482    ( 0.0000,  0.0000,  0.0000)
   7 H      8.242004    8.193753   11.879542    ( 0.0000,  0.0000,  0.0000)
   8 H      7.050213    9.441412   12.289610    ( 0.0000,  0.0000,  0.0000)
   9 H      8.436902    9.845383   11.250417    ( 0.0000,  0.0000,  0.0000)
  10 H      9.383557    4.676560    7.161395    ( 0.0000,  0.0000,  0.0000)
  11 H      9.091184    4.381969    8.887352    ( 0.0000,  0.0000,  0.0000)
  12 H      8.832710    6.836231    6.176004    ( 0.0000,  0.0000,  0.0000)
  13 H      8.214631    8.157850    7.186526    ( 0.0000,  0.0000,  0.0000)
  14 H     10.892507    5.984953    9.512633    ( 0.0000,  0.0000,  0.0000)
  15 H     11.522623    4.724443    8.408629    ( 0.0000,  0.0000,  0.0000)
  16 H     10.605455    8.488204    6.635556    ( 0.0000,  0.0000,  0.0000)
  17 H     10.359414    8.352110    8.392795    ( 0.0000,  0.0000,  0.0000)
  18 O      8.128968    5.980863   10.413797    ( 0.0000,  0.0000,  0.0000)
  19 F      4.067623    7.768704    3.993672    ( 0.0000,  0.0000,  0.0000)
  20 Cl    17.028907    8.254824    7.397116    ( 0.0000,  0.0000,  0.0000)
  21 Cl    15.022481    8.966678    4.937480    ( 0.0000,  0.0000,  0.0000)
  22 N      5.267525    9.145650    8.834709    ( 0.0000,  0.0000,  0.0000)
  23 O      5.929731    9.589085    9.962256    ( 0.0000,  0.0000,  0.0000)
  24 C      7.899632    6.602784    9.351121    ( 0.0000,  0.0000,  0.0000)
  25 C      5.850857    8.003150    8.494782    ( 0.0000,  0.0000,  0.0000)
  26 C      6.910449    8.722526   10.292747    ( 0.0000,  0.0000,  0.0000)
  27 C      4.773430    5.091134    6.338382    ( 0.0000,  0.0000,  0.0000)
  28 C      4.374418    5.742517    5.172447    ( 0.0000,  0.0000,  0.0000)
  29 C     14.860236    7.100100    8.495675    ( 0.0000,  0.0000,  0.0000)
  30 C      5.249605    5.814075    7.423318    ( 0.0000,  0.0000,  0.0000)
  31 C      4.924135    7.871714    6.190484    ( 0.0000,  0.0000,  0.0000)
  32 C     13.532211    6.715056    8.554448    ( 0.0000,  0.0000,  0.0000)
  33 C     13.155315    7.721490    6.411160    ( 0.0000,  0.0000,  0.0000)
  34 C      4.456783    7.124557    5.128251    ( 0.0000,  0.0000,  0.0000)
  35 C     15.363554    7.802116    7.403968    ( 0.0000,  0.0000,  0.0000)
  36 C     14.485115    8.110481    6.345387    ( 0.0000,  0.0000,  0.0000)
  37 C      6.936048    7.717857    9.364871    ( 0.0000,  0.0000,  0.0000)
  38 C      5.338828    7.213570    7.358240    ( 0.0000,  0.0000,  0.0000)
  39 C     12.638380    7.024233    7.516005    ( 0.0000,  0.0000,  0.0000)
  40 N      8.498860    6.276987    8.158482    ( 0.0000,  0.0000,  0.0000)
  41 N     11.272806    6.646428    7.516913    ( 0.0000,  0.0000,  0.0000)
  42 C      7.703430    9.062834   11.490823    ( 0.0000,  0.0000,  0.0000)
  43 C      9.424806    5.143306    8.161782    ( 0.0000,  0.0000,  0.0000)
  44 C      8.899583    7.293882    7.177118    ( 0.0000,  0.0000,  0.0000)
  45 C     10.851774    5.603236    8.473276    ( 0.0000,  0.0000,  0.0000)
  46 C     10.327971    7.778205    7.439652    ( 0.0000,  0.0000,  0.0000)

Unit cell:
           periodic     x           y           z      points  spacing
  1. axis:    no    21.025900    0.000000    0.000000    98     0.2146
  2. axis:    no     0.000000   13.841300    0.000000    64     0.2163
  3. axis:    no     0.000000    0.000000   16.288100    80     0.2036

  Lengths:  21.025900  13.841300  16.288100
  Angles:   90.000000  90.000000  90.000000

Effective grid spacing dv^(1/3) = 0.2114

                     log10-error:    total        iterations:
           time      wfs    density  energy       poisson
iter:   1  15:17:46  -2.18         -288.586588           
iter:   2  15:18:11  -3.68  -2.17  -288.561254           
iter:   3  15:18:36  -2.65  -2.20  -288.493184           
iter:   4  15:19:02  -3.80  -2.57  -288.493549           
iter:   5  15:19:28  -4.02  -2.54  -288.485582           
iter:   6  15:19:55  -3.73  -2.79  -288.483772           
iter:   7  15:20:21  -4.75  -2.91  -288.482753           
iter:   8  15:20:47  -5.02  -3.10  -288.482340           
iter:   9  15:21:12  -5.52  -3.38  -288.482336           
iter:  10  15:21:37  -5.49  -3.46  -288.482326           
iter:  11  15:22:02  -6.53  -3.77  -288.482306           
iter:  12  15:22:27  -7.29  -3.83  -288.482308           
iter:  13  15:22:52  -6.59  -3.89  -288.482313           
iter:  14  15:23:17  -6.59  -4.09  -288.482308           
iter:  15  15:23:42  -7.41  -4.32  -288.482307           

Converged after 15 iterations.

Dipole moment: (0.012565, -0.449999, 0.127696) |e|*Ang

Energy contributions relative to reference atoms: (reference = -58155.862037)

Kinetic:       +223.647410
Potential:     -235.224857
External:        +0.000000
XC:            -276.875248
Entropy (-ST):   +0.000000
Local:           -0.029612
--------------------------
Free energy:   -288.482307
Extrapolated:  -288.482307

 Band  Eigenvalues  Occupancy
    0    -30.30217    2.00000
    1    -28.85824    2.00000
    2    -25.66062    2.00000
    3    -24.02178    2.00000
    4    -23.16306    2.00000
    5    -22.26420    2.00000
    6    -21.93079    2.00000
    7    -21.08934    2.00000
    8    -20.98606    2.00000
    9    -20.31675    2.00000
   10    -20.14905    2.00000
   11    -19.14443    2.00000
   12    -18.58551    2.00000
   13    -18.42257    2.00000
   14    -18.30826    2.00000
   15    -18.01411    2.00000
   16    -17.67147    2.00000
   17    -17.08592    2.00000
   18    -16.22190    2.00000
   19    -15.89061    2.00000
   20    -15.57313    2.00000
   21    -15.03624    2.00000
   22    -14.79964    2.00000
   23    -14.69079    2.00000
   24    -14.24720    2.00000
   25    -13.83849    2.00000
   26    -13.20037    2.00000
   27    -13.10713    2.00000
   28    -12.73263    2.00000
   29    -12.23578    2.00000
   30    -11.88515    2.00000
   31    -11.82770    2.00000
   32    -11.73954    2.00000
   33    -11.60145    2.00000
   34    -11.43645    2.00000
   35    -11.35109    2.00000
   36    -11.24622    2.00000
   37    -11.09166    2.00000
   38    -10.96324    2.00000
   39    -10.72280    2.00000
   40    -10.68738    2.00000
   41    -10.42452    2.00000
   42    -10.32065    2.00000
   43    -10.17892    2.00000
   44    -10.06858    2.00000
   45     -9.83672    2.00000
   46     -9.79989    2.00000
   47     -9.73127    2.00000
   48     -9.51714    2.00000
   49     -9.42428    2.00000
   50     -9.33892    2.00000
   51     -9.19981    2.00000
   52     -9.06861    2.00000
   53     -8.93767    2.00000
   54     -8.76564    2.00000
   55     -8.66284    2.00000
   56     -8.64750    2.00000
   57     -8.58194    2.00000
   58     -8.32251    2.00000
   59     -8.30384    2.00000
   60     -7.96794    2.00000
   61     -7.91955    2.00000
   62     -7.76542    2.00000
   63     -7.21573    2.00000
   64     -7.17617    2.00000
   65     -6.85227    2.00000
   66     -6.76892    2.00000
   67     -6.26290    2.00000
   68     -6.24382    2.00000
   69     -5.97513    2.00000
   70     -5.75072    2.00000
   71     -5.69411    2.00000
   72     -5.55066    2.00000
   73     -5.24468    2.00000
   74     -4.61097    2.00000
   75     -1.57984    0.00000
   76     -1.24397    0.00000
   77     -1.11564    0.00000
   78     -0.90004    0.00000
   79     -0.84372    0.00000
   80     -0.46926    0.00000
   81     -0.42445    0.00000
   82     -0.29302    0.00000
   83     -0.00761    0.00000
   84      0.17348    0.00000
   85      0.20598    0.00000
   86      0.36739    0.00000
   87      0.47698    0.00000
   88      0.61138    0.00000
   89      0.67353    0.00000
   90      0.75080    0.00000
   91      0.84205    0.00000
   92      0.87310    0.00000
   93      0.91097    0.00000

Fermi level: -3.09541

Gap: 3.031 eV
Transition (v -> c):
  (s=0, k=0, n=74, [0.00, 0.00, 0.00]) -> (s=0, k=0, n=75, [0.00, 0.00, 0.00])

Forces in eV/Ang:
  0 H     0.00215    0.13515    0.00448
  1 H    -0.06936   -0.07188   -0.19019
  2 H    -0.06844    0.07085   -0.16510
  3 H     0.05461    0.06099    0.08500
  4 H     0.03060    0.14249    0.02418
  5 H    -0.08276   -0.05437    0.06355
  6 H     0.02294    0.02967   -0.02637
  7 H     0.03993   -0.21774   -0.08694
  8 H    -0.06401    0.08269    0.00379
  9 H     0.09638    0.16055    0.04863
 10 H     0.07008    0.10761   -0.06051
 11 H     0.03449    0.28261    0.06863
 12 H     0.05399   -0.01899   -0.06114
 13 H    -0.00275   -0.15228    0.14500
 14 H    -0.10341   -0.07633    0.14225
 15 H     0.06735    0.27431   -0.11209
 16 H     0.12788   -0.29156    0.12036
 17 H    -0.11429    0.03697    0.04092
 18 O     0.03992    0.07697   -0.50726
 19 F     0.08482   -0.01606    0.17417
 20 Cl    0.11911    0.09736   -0.12382
 21 Cl    0.10575    0.01320   -0.00473
 22 N    -0.42575    0.12450    0.11611
 23 O    -0.04421   -0.00476   -0.14900
 24 C     0.14491   -0.21148    0.95646
 25 C    -0.04028   -0.03939   -0.46442
 26 C     0.05452    0.14145    0.19598
 27 C    -0.09336   -0.21804   -0.12494
 28 C    -0.03139   -0.14797   -0.01914
 29 C     0.36644   -0.06328    0.15255
 30 C     0.12999    0.06544    0.21426
 31 C     0.07857    0.15846    0.18265
 32 C    -0.41486   -0.19249    0.11194
 33 C    -0.33660   -0.00659   -0.08776
 34 C    -0.14525    0.01565   -0.30918
 35 C    -0.13873    0.01959   -0.11886
 36 C     0.21392    0.02932    0.18832
 37 C     0.25811   -0.38152   -0.02119
 38 C     0.02973    0.11201   -0.01813
 39 C     0.01097   -0.08398    0.07206
 40 N     0.30876   -0.04188   -0.11531
 41 N     0.00314   -0.04557   -0.30374
 42 C     0.09721    0.04416    0.06358
 43 C     0.05541    0.04905   -0.03481
 44 C    -0.10739   -0.04970   -0.02725
 45 C     0.06663    0.27240   -0.10460
 46 C    -0.03413   -0.18563    0.09117

System changes: positions 

Initializing position-dependent things.

Density initialized from wave functions
          .---------------------------------------------------.  
         /|                                                   |  
        / |                                                   |  
       /  |                                                   |  
      /   |                                                   |  
     /    |                                                   |  
    /     |                                                   |  
   /      |                                                   |  
  /       |              H                                    |  
 *        |               CHH                                 |  
 |        |                                                   |  
 |        |           O C                                     |  
 |        |         N  C O                                    |  
 |        |          C   C      H     H     H                 |  
 |        |                            C  C                   |  
 |        |       HC      HHC  CCN   C      C   Cl            |  
 |        |       CH        C    H     C  C                   |  
 |        |                H         H      Cl                |  
 |        |     CC                                            |  
 |        |    HC                                             |  
 |        .---H-----------------------------------------------.  
 |       /                                                   /   
 |      /                                                   /    
 |     /                                                   /     
 |    /                                                   /      
 |   /                                                   /       
 |  /                                                   /        
 | /                                                   /         
 |/                                                   /          
 *---------------------------------------------------*           

Positions:
   0 H      4.703723    3.998428    6.395817    ( 0.0000,  0.0000,  0.0000)
   1 H      3.997565    5.187213    4.313347    ( 0.0000,  0.0000,  0.0000)
   2 H     15.532197    6.852330    9.326109    ( 0.0000,  0.0000,  0.0000)
   3 H      5.538219    5.281214    8.332783    ( 0.0000,  0.0000,  0.0000)
   4 H      4.966887    8.959193    6.112213    ( 0.0000,  0.0000,  0.0000)
   5 H     13.192466    6.175423    9.440297    ( 0.0000,  0.0000,  0.0000)
   6 H     12.503730    7.939021    5.560715    ( 0.0000,  0.0000,  0.0000)
   7 H      8.242634    8.190397   11.878244    ( 0.0000,  0.0000,  0.0000)
   8 H      7.048985    9.442839   12.289944    ( 0.0000,  0.0000,  0.0000)
   9 H      8.438630    9.848151   11.251080    ( 0.0000,  0.0000,  0.0000)
  10 H      9.384646    4.677812    7.159903    ( 0.0000,  0.0000,  0.0000)
  11 H      9.091381    4.385755    8.888802    ( 0.0000,  0.0000,  0.0000)
  12 H      8.833533    6.835868    6.174525    ( 0.0000,  0.0000,  0.0000)
  13 H      8.213882    8.156216    7.188729    ( 0.0000,  0.0000,  0.0000)
  14 H     10.890959    5.983902    9.515619    ( 0.0000,  0.0000,  0.0000)
  15 H     11.524260    4.727912    8.406959    ( 0.0000,  0.0000,  0.0000)
  16 H     10.607812    8.484472    6.636718    ( 0.0000,  0.0000,  0.0000)
  17 H     10.357751    8.353349    8.394308    ( 0.0000,  0.0000,  0.0000)
  18 O      8.130254    5.980028   10.409949    ( 0.0000,  0.0000,  0.0000)
  19 F      4.068300    7.769473    3.994633    ( 0.0000,  0.0000,  0.0000)
  20 Cl    17.030955    8.256416    7.395145    ( 0.0000,  0.0000,  0.0000)
  21 Cl    15.024264    8.966989    4.937265    ( 0.0000,  0.0000,  0.0000)
  22 N      5.261544    9.145782    8.835715    ( 0.0000,  0.0000,  0.0000)
  23 O      5.930061    9.587904    9.959772    ( 0.0000,  0.0000,  0.0000)
  24 C      7.903714    6.599417    9.360415    ( 0.0000,  0.0000,  0.0000)
  25 C      5.850596    8.004967    8.489432    ( 0.0000,  0.0000,  0.0000)
  26 C      6.911002    8.724248   10.295150    ( 0.0000,  0.0000,  0.0000)
  27 C      4.772524    5.089877    6.337435    ( 0.0000,  0.0000,  0.0000)
  28 C      4.373824    5.740418    5.171782    ( 0.0000,  0.0000,  0.0000)
  29 C     14.862760    7.098859    8.496861    ( 0.0000,  0.0000,  0.0000)
  30 C      5.251144    5.814351    7.425468    ( 0.0000,  0.0000,  0.0000)
  31 C      4.924832    7.873873    6.192046    ( 0.0000,  0.0000,  0.0000)
  32 C     13.528279    6.712716    8.556302    ( 0.0000,  0.0000,  0.0000)
  33 C     13.151747    7.721634    6.410272    ( 0.0000,  0.0000,  0.0000)
  34 C      4.455699    7.123681    5.126701    ( 0.0000,  0.0000,  0.0000)
  35 C     15.362753    7.802040    7.403568    ( 0.0000,  0.0000,  0.0000)
  36 C     14.485686    8.110651    6.347456    ( 0.0000,  0.0000,  0.0000)
  37 C      6.937097    7.715353    9.365096    ( 0.0000,  0.0000,  0.0000)
  38 C      5.338937    7.214366    7.357359    ( 0.0000,  0.0000,  0.0000)
  39 C     12.639556    7.023178    7.516900    ( 0.0000,  0.0000,  0.0000)
  40 N      8.502456    6.276863    8.157977    ( 0.0000,  0.0000,  0.0000)
  41 N     11.271328    6.645792    7.512292    ( 0.0000,  0.0000,  0.0000)
  42 C      7.704965    9.063066   11.491635    ( 0.0000,  0.0000,  0.0000)
  43 C      9.426349    5.145529    8.161498    ( 0.0000,  0.0000,  0.0000)
  44 C      8.899575    7.292426    7.177637    ( 0.0000,  0.0000,  0.0000)
  45 C     10.851818    5.608217    8.470417    ( 0.0000,  0.0000,  0.0000)
  46 C     10.326499    7.773018    7.440680    ( 0.0000,  0.0000,  0.0000)

Unit cell:
           periodic     x           y           z      points  spacing
  1. axis:    no    21.025900    0.000000    0.000000    98     0.2146
  2. axis:    no     0.000000   13.841300    0.000000    64     0.2163
  3. axis:    no     0.000000    0.000000   16.288100    80     0.2036

  Lengths:  21.025900  13.841300  16.288100
  Angles:   90.000000  90.000000  90.000000

Effective grid spacing dv^(1/3) = 0.2114

                     log10-error:    total        iterations:
           time      wfs    density  energy       poisson
iter:   1  15:24:30  -3.04         -288.522989           
iter:   2  15:24:55  -4.40  -2.69  -288.520632           
iter:   3  15:25:20  -3.74  -2.71  -288.513477           
iter:   4  15:25:47  -5.01  -3.04  -288.513707           
iter:   5  15:26:12  -4.85  -3.00  -288.512914           
iter:   6  15:26:36  -4.66  -3.25  -288.512583           
iter:   7  15:27:02  -5.37  -3.44  -288.512486           
iter:   8  15:27:26  -5.94  -3.60  -288.512428           
iter:   9  15:27:51  -6.25  -3.92  -288.512431           
iter:  10  15:28:16  -6.40  -3.97  -288.512429           
iter:  11  15:28:41  -7.36  -4.27  -288.512427           
iter:  12  15:29:06  -8.32  -4.35  -288.512427           

Converged after 12 iterations.

Dipole moment: (0.011087, -0.448864, 0.143407) |e|*Ang

Energy contributions relative to reference atoms: (reference = -58155.862037)

Kinetic:       +222.719881
Potential:     -234.527096
External:        +0.000000
XC:            -276.676796
Entropy (-ST):   +0.000000
Local:           -0.028415
--------------------------
Free energy:   -288.512427
Extrapolated:  -288.512427

 Band  Eigenvalues  Occupancy
    0    -30.32833    2.00000
    1    -28.84699    2.00000
    2    -25.79497    2.00000
    3    -24.05654    2.00000
    4    -23.16798    2.00000
    5    -22.25506    2.00000
    6    -21.91398    2.00000
    7    -21.06843    2.00000
    8    -20.96991    2.00000
    9    -20.30810    2.00000
   10    -20.12925    2.00000
   11    -19.12894    2.00000
   12    -18.58278    2.00000
   13    -18.40407    2.00000
   14    -18.28373    2.00000
   15    -18.00273    2.00000
   16    -17.67040    2.00000
   17    -17.07496    2.00000
   18    -16.20683    2.00000
   19    -15.88322    2.00000
   20    -15.54610    2.00000
   21    -15.02858    2.00000
   22    -14.82239    2.00000
   23    -14.68509    2.00000
   24    -14.23515    2.00000
   25    -13.81799    2.00000
   26    -13.18520    2.00000
   27    -13.09876    2.00000
   28    -12.72471    2.00000
   29    -12.22535    2.00000
   30    -11.87799    2.00000
   31    -11.82373    2.00000
   32    -11.73554    2.00000
   33    -11.59535    2.00000
   34    -11.42855    2.00000
   35    -11.33418    2.00000
   36    -11.22516    2.00000
   37    -11.08858    2.00000
   38    -10.97029    2.00000
   39    -10.73313    2.00000
   40    -10.68586    2.00000
   41    -10.42674    2.00000
   42    -10.31724    2.00000
   43    -10.18371    2.00000
   44    -10.07476    2.00000
   45     -9.85462    2.00000
   46     -9.81433    2.00000
   47     -9.73298    2.00000
   48     -9.50993    2.00000
   49     -9.42509    2.00000
   50     -9.32715    2.00000
   51     -9.19420    2.00000
   52     -9.07643    2.00000
   53     -8.94505    2.00000
   54     -8.76794    2.00000
   55     -8.66201    2.00000
   56     -8.64609    2.00000
   57     -8.56930    2.00000
   58     -8.32295    2.00000
   59     -8.30160    2.00000
   60     -7.95646    2.00000
   61     -7.90977    2.00000
   62     -7.76596    2.00000
   63     -7.21063    2.00000
   64     -7.18357    2.00000
   65     -6.86195    2.00000
   66     -6.76593    2.00000
   67     -6.26948    2.00000
   68     -6.23896    2.00000
   69     -5.96286    2.00000
   70     -5.74067    2.00000
   71     -5.69425    2.00000
   72     -5.54435    2.00000
   73     -5.27755    2.00000
   74     -4.62747    2.00000
   75     -1.57413    0.00000
   76     -1.23011    0.00000
   77     -1.14199    0.00000
   78     -0.89560    0.00000
   79     -0.85993    0.00000
   80     -0.47803    0.00000
   81     -0.41873    0.00000
   82     -0.29225    0.00000
   83     -0.00600    0.00000
   84      0.17344    0.00000
   85      0.21021    0.00000
   86      0.36961    0.00000
   87      0.47779    0.00000
   88      0.61390    0.00000
   89      0.67215    0.00000
   90      0.75116    0.00000
   91      0.80213    0.00000
   92      0.86762    0.00000
   93      0.88338    0.00000

Fermi level: -3.10080

Gap: 3.053 eV
Transition (v -> c):
  (s=0, k=0, n=74, [0.00, 0.00, 0.00]) -> (s=0, k=0, n=75, [0.00, 0.00, 0.00])

Forces in eV/Ang:
  0 H    -0.00399    0.05529    0.00796
  1 H    -0.04992   -0.05365   -0.14244
  2 H     0.02081    0.03387   -0.05515
  3 H     0.06284    0.05009    0.10376
  4 H     0.03151    0.12695    0.02642
  5 H    -0.11227   -0.08603    0.10942
  6 H    -0.02698    0.03660   -0.06947
  7 H     0.01729   -0.15716   -0.09315
  8 H    -0.01728    0.05730   -0.01781
  9 H     0.06280    0.10668    0.06589
 10 H     0.07387    0.11013   -0.01627
 11 H     0.05805    0.27737    0.05000
 12 H     0.04370   -0.00902   -0.02661
 13 H     0.01296   -0.15540    0.13988
 14 H    -0.08947   -0.05953    0.03685
 15 H     0.03152    0.31417   -0.10753
 16 H     0.09230   -0.30857    0.15136
 17 H    -0.10959   -0.03939   -0.02725
 18 O     0.17997   -0.29592    0.16756
 19 F     0.06047   -0.01296    0.12466
 20 Cl    0.05496    0.07685   -0.11893
 21 Cl    0.08880   -0.01280    0.04347
 22 N    -0.27366   -0.00523    0.08208
 23 O    -0.09236    0.09078   -0.05077
 24 C     0.01373    0.17934    0.03758
 25 C     0.05504   -0.01932   -0.19378
 26 C     0.00653   -0.06424   -0.07394
 27 C    -0.01392   -0.08253    0.03257
 28 C    -0.05393   -0.08323   -0.08447
 29 C     0.02440   -0.07150    0.02191
 30 C     0.04596    0.02059    0.01697
 31 C    -0.01414    0.03407   -0.03108
 32 C    -0.06108   -0.07908    0.06515
 33 C    -0.06269    0.00880    0.01672
 34 C    -0.06150    0.07979   -0.11898
 35 C    -0.04206   -0.00985   -0.01340
 36 C     0.02087    0.03554    0.05761
 37 C     0.14530   -0.17884    0.03772
 38 C     0.03574    0.06651   -0.00493
 39 C    -0.14996   -0.04824   -0.02989
 40 N     0.13247   -0.03762    0.09371
 41 N     0.07601   -0.07636   -0.19748
 42 C     0.10322    0.08526    0.10912
 43 C     0.05629   -0.01221   -0.09018
 44 C    -0.12092   -0.04972   -0.05711
 45 C     0.12677    0.09942    0.01921
 46 C     0.03407    0.07348    0.06017

System changes: positions 

Initializing position-dependent things.

Density initialized from wave functions
          .---------------------------------------------------.  
         /|                                                   |  
        / |                                                   |  
       /  |                                                   |  
      /   |                                                   |  
     /    |                                                   |  
    /     |                                                   |  
   /      |                                                   |  
  /       |              H                                    |  
 *        |               CHH                                 |  
 |        |                                                   |  
 |        |           O C                                     |  
 |        |         N  C O                                    |  
 |        |          C   C      H     H     H                 |  
 |        |                            C  C                   |  
 |        |       HC      HHC  CCN   C      C   Cl            |  
 |        |       CH        C    H     C  C                   |  
 |        |                H         H      Cl                |  
 |        |     CC                                            |  
 |        |    HC                                             |  
 |        .---H-----------------------------------------------.  
 |       /                                                   /   
 |      /                                                   /    
 |     /                                                   /     
 |    /                                                   /      
 |   /                                                   /       
 |  /                                                   /        
 | /                                                   /         
 |/                                                   /          
 *---------------------------------------------------*           

Positions:
   0 H      4.703574    4.000127    6.396039    ( 0.0000,  0.0000,  0.0000)
   1 H      3.995581    5.185063    4.307812    ( 0.0000,  0.0000,  0.0000)
   2 H     15.532649    6.853736    9.323740    ( 0.0000,  0.0000,  0.0000)
   3 H      5.540348    5.282907    8.336412    ( 0.0000,  0.0000,  0.0000)
   4 H      4.968009    8.963952    6.113172    ( 0.0000,  0.0000,  0.0000)
   5 H     13.188836    6.172723    9.443681    ( 0.0000,  0.0000,  0.0000)
   6 H     12.503154    7.940294    5.558441    ( 0.0000,  0.0000,  0.0000)
   7 H      8.243515    8.184328   11.875217    ( 0.0000,  0.0000,  0.0000)
   8 H      7.047522    9.445284   12.289951    ( 0.0000,  0.0000,  0.0000)
   9 H      8.441474    9.852794   11.252992    ( 0.0000,  0.0000,  0.0000)
  10 H      9.387113    4.681002    7.158107    ( 0.0000,  0.0000,  0.0000)
  11 H      9.092639    4.394502    8.891216    ( 0.0000,  0.0000,  0.0000)
  12 H      8.835130    6.835352    6.172527    ( 0.0000,  0.0000,  0.0000)
  13 H      8.213242    8.151884    7.193490    ( 0.0000,  0.0000,  0.0000)
  14 H     10.887815    5.981836    9.519159    ( 0.0000,  0.0000,  0.0000)
  15 H     11.526519    4.737113    8.403332    ( 0.0000,  0.0000,  0.0000)
  16 H     10.611859    8.475184    6.640597    ( 0.0000,  0.0000,  0.0000)
  17 H     10.354105    8.353793    8.395329    ( 0.0000,  0.0000,  0.0000)
  18 O      8.135467    5.972063   10.412290    ( 0.0000,  0.0000,  0.0000)
  19 F      4.069860    7.770270    3.997306    ( 0.0000,  0.0000,  0.0000)
  20 Cl    17.033873    8.259387    7.390979    ( 0.0000,  0.0000,  0.0000)
  21 Cl    15.027673    8.967011    4.937967    ( 0.0000,  0.0000,  0.0000)
  22 N      5.251130    9.144963    8.837933    ( 0.0000,  0.0000,  0.0000)
  23 O      5.928792    9.588415    9.956609    ( 0.0000,  0.0000,  0.0000)
  24 C      7.908109    6.600545    9.366176    ( 0.0000,  0.0000,  0.0000)
  25 C      5.851737    8.007101    8.481801    ( 0.0000,  0.0000,  0.0000)
  26 C      6.911454    8.724031   10.295196    ( 0.0000,  0.0000,  0.0000)
  27 C      4.771742    5.088047    6.337826    ( 0.0000,  0.0000,  0.0000)
  28 C      4.372135    5.737029    5.169261    ( 0.0000,  0.0000,  0.0000)
  29 C     14.863885    7.096206    8.497753    ( 0.0000,  0.0000,  0.0000)
  30 C      5.253152    5.814683    7.427028    ( 0.0000,  0.0000,  0.0000)
  31 C      4.924851    7.876204    6.192055    ( 0.0000,  0.0000,  0.0000)
  32 C     13.524938    6.709425    8.559246    ( 0.0000,  0.0000,  0.0000)
  33 C     13.148281    7.722050    6.410134    ( 0.0000,  0.0000,  0.0000)
  34 C      4.454030    7.124194    5.124355    ( 0.0000,  0.0000,  0.0000)
  35 C     15.361813    7.801595    7.403610    ( 0.0000,  0.0000,  0.0000)
  36 C     14.485354    8.111426    6.349973    ( 0.0000,  0.0000,  0.0000)
  37 C      6.939739    7.711028    9.366339    ( 0.0000,  0.0000,  0.0000)
  38 C      5.339636    7.216014    7.356275    ( 0.0000,  0.0000,  0.0000)
  39 C     12.637718    7.021404    7.516873    ( 0.0000,  0.0000,  0.0000)
  40 N      8.507658    6.276190    8.160172    ( 0.0000,  0.0000,  0.0000)
  41 N     11.271094    6.643668    7.504371    ( 0.0000,  0.0000,  0.0000)
  42 C      7.708433    9.064886   11.494561    ( 0.0000,  0.0000,  0.0000)
  43 C      9.429108    5.147707    8.159442    ( 0.0000,  0.0000,  0.0000)
  44 C      8.897709    7.289879    7.177246    ( 0.0000,  0.0000,  0.0000)
  45 C     10.854141    5.614695    8.467983    ( 0.0000,  0.0000,  0.0000)
  46 C     10.325628    7.769404    7.442626    ( 0.0000,  0.0000,  0.0000)

Unit cell:
           periodic     x           y           z      points  spacing
  1. axis:    no    21.025900    0.000000    0.000000    98     0.2146
  2. axis:    no     0.000000   13.841300    0.000000    64     0.2163
  3. axis:    no     0.000000    0.000000   16.288100    80     0.2036

  Lengths:  21.025900  13.841300  16.288100
  Angles:   90.000000  90.000000  90.000000

Effective grid spacing dv^(1/3) = 0.2114

                     log10-error:    total        iterations:
           time      wfs    density  energy       poisson
iter:   1  15:29:53  -2.98         -288.546164           
iter:   2  15:30:20  -4.27  -2.66  -288.544751           
iter:   3  15:30:44  -3.73  -2.68  -288.539006           
iter:   4  15:31:10  -5.31  -3.04  -288.538974           
iter:   5  15:31:36  -5.08  -3.03  -288.538995           
iter:   6  15:32:02  -4.56  -3.09  -288.538518           
iter:   7  15:32:28  -5.66  -3.36  -288.538345           
iter:   8  15:32:55  -6.11  -3.66  -288.538342           
iter:   9  15:33:22  -6.71  -3.90  -288.538348           
iter:  10  15:33:47  -6.53  -3.89  -288.538339           
iter:  11  15:34:13  -7.68  -4.25  -288.538339           

Converged after 11 iterations.

Dipole moment: (0.002332, -0.438010, 0.135199) |e|*Ang

Energy contributions relative to reference atoms: (reference = -58155.862037)

Kinetic:       +220.303580
Potential:     -232.671168
External:        +0.000000
XC:            -276.132183
Entropy (-ST):   +0.000000
Local:           -0.038569
--------------------------
Free energy:   -288.538339
Extrapolated:  -288.538339

 Band  Eigenvalues  Occupancy
    0    -30.40110    2.00000
    1    -28.81131    2.00000
    2    -25.77489    2.00000
    3    -24.07749    2.00000
    4    -23.17597    2.00000
    5    -22.24076    2.00000
    6    -21.88254    2.00000
    7    -21.03169    2.00000
    8    -20.94630    2.00000
    9    -20.29541    2.00000
   10    -20.11972    2.00000
   11    -19.12297    2.00000
   12    -18.57813    2.00000
   13    -18.39678    2.00000
   14    -18.26244    2.00000
   15    -17.99451    2.00000
   16    -17.66016    2.00000
   17    -17.06919    2.00000
   18    -16.21223    2.00000
   19    -15.88895    2.00000
   20    -15.54083    2.00000
   21    -15.02609    2.00000
   22    -14.83568    2.00000
   23    -14.68644    2.00000
   24    -14.23110    2.00000
   25    -13.81149    2.00000
   26    -13.17697    2.00000
   27    -13.09444    2.00000
   28    -12.72633    2.00000
   29    -12.22080    2.00000
   30    -11.87590    2.00000
   31    -11.82553    2.00000
   32    -11.73151    2.00000
   33    -11.59175    2.00000
   34    -11.41682    2.00000
   35    -11.32809    2.00000
   36    -11.22175    2.00000
   37    -11.09173    2.00000
   38    -10.97417    2.00000
   39    -10.77175    2.00000
   40    -10.68416    2.00000
   41    -10.42160    2.00000
   42    -10.31453    2.00000
   43    -10.18435    2.00000
   44    -10.06949    2.00000
   45     -9.84676    2.00000
   46     -9.81043    2.00000
   47     -9.72297    2.00000
   48     -9.49762    2.00000
   49     -9.42334    2.00000
   50     -9.32520    2.00000
   51     -9.19866    2.00000
   52     -9.08952    2.00000
   53     -8.94081    2.00000
   54     -8.76656    2.00000
   55     -8.66791    2.00000
   56     -8.64011    2.00000
   57     -8.55980    2.00000
   58     -8.31726    2.00000
   59     -8.29118    2.00000
   60     -7.95024    2.00000
   61     -7.89608    2.00000
   62     -7.76288    2.00000
   63     -7.20036    2.00000
   64     -7.18943    2.00000
   65     -6.87439    2.00000
   66     -6.75979    2.00000
   67     -6.26908    2.00000
   68     -6.24835    2.00000
   69     -5.95089    2.00000
   70     -5.73088    2.00000
   71     -5.69607    2.00000
   72     -5.53659    2.00000
   73     -5.28513    2.00000
   74     -4.65344    2.00000
   75     -1.58970    0.00000
   76     -1.24996    0.00000
   77     -1.16444    0.00000
   78     -0.90074    0.00000
   79     -0.87512    0.00000
   80     -0.49801    0.00000
   81     -0.43346    0.00000
   82     -0.29045    0.00000
   83     -0.00466    0.00000
   84      0.17374    0.00000
   85      0.21533    0.00000
   86      0.37320    0.00000
   87      0.48031    0.00000
   88      0.61561    0.00000
   89      0.67059    0.00000
   90      0.75022    0.00000
   91      0.79610    0.00000
   92      0.86189    0.00000
   93      0.87973    0.00000

Fermi level: -3.12157

Gap: 3.064 eV
Transition (v -> c):
  (s=0, k=0, n=74, [0.00, 0.00, 0.00]) -> (s=0, k=0, n=75, [0.00, 0.00, 0.00])

Forces in eV/Ang:
  0 H    -0.00987   -0.06366    0.02339
  1 H    -0.02620   -0.03342   -0.08143
  2 H     0.09050   -0.00606    0.04384
  3 H     0.05426    0.06627    0.06574
  4 H     0.02533    0.04111    0.02321
  5 H    -0.10636   -0.08106    0.09753
  6 H    -0.03038    0.02923   -0.05561
  7 H    -0.01744   -0.05175   -0.09646
  8 H     0.02430    0.02910   -0.02322
  9 H     0.03016    0.04464    0.08102
 10 H     0.06720    0.08749   -0.02293
 11 H     0.07367    0.21714    0.05225
 12 H     0.01874   -0.01366   -0.00472
 13 H    -0.02309   -0.10347    0.12084
 14 H    -0.06388   -0.01519   -0.06015
 15 H     0.06515    0.24544   -0.09357
 16 H     0.08217   -0.20098    0.07240
 17 H    -0.08448   -0.09449   -0.04210
 18 O     0.10810   -0.16353    0.07423
 19 F    -0.00841    0.05291   -0.03399
 20 Cl   -0.04945    0.03894   -0.10159
 21 Cl    0.05833   -0.03360    0.08120
 22 N    -0.00274   -0.23817    0.01896
 23 O    -0.06628    0.03039    0.04531
 24 C     0.11936   -0.06628   -0.06619
 25 C     0.09094    0.08912    0.18109
 26 C    -0.02353   -0.03676   -0.13148
 27 C     0.01690    0.11888    0.03887
 28 C    -0.02723    0.05258   -0.03313
 29 C    -0.20021   -0.04390   -0.08769
 30 C    -0.00781   -0.00344   -0.08778
 31 C    -0.06344   -0.01282   -0.14597
 32 C     0.09301    0.00714   -0.02488
 33 C     0.10750    0.02592    0.05476
 34 C     0.02710   -0.04967    0.11644
 35 C     0.03876   -0.02516    0.05760
 36 C    -0.10240    0.03579   -0.04114
 37 C    -0.08933    0.10485   -0.02358
 38 C     0.01106   -0.02669   -0.07450
 39 C    -0.05928    0.00380   -0.05758
 40 N    -0.01216    0.06774    0.15670
 41 N    -0.00667   -0.06685   -0.01286
 42 C     0.04309    0.03168    0.00746
 43 C     0.09961   -0.01484   -0.03863
 44 C    -0.01054   -0.06434   -0.02912
 45 C     0.05786   -0.03622    0.08050
 46 C     0.01385    0.11825    0.03059

System changes: positions 

Initializing position-dependent things.

Density initialized from wave functions
          .---------------------------------------------------.  
         /|                                                   |  
        / |                                                   |  
       /  |                                                   |  
      /   |                                                   |  
     /    |                                                   |  
    /     |                                                   |  
   /      |                                                   |  
  /       |              H                                    |  
 *        |               CHH                                 |  
 |        |                                                   |  
 |        |           O C                                     |  
 |        |         N  C O                                    |  
 |        |          C   C      H     H     H                 |  
 |        |                            C  C                   |  
 |        |       HC      HHC   CN   C      C    Cl           |  
 |        |       CH        C    H     C  C                   |  
 |        |                H         H      Cl                |  
 |        |     CC                                            |  
 |        |    HC                                             |  
 |        .---H-----------------------------------------------.  
 |       /                                                   /   
 |      /                                                   /    
 |     /                                                   /     
 |    /                                                   /      
 |   /                                                   /       
 |  /                                                   /        
 | /                                                   /         
 |/                                                   /          
 *---------------------------------------------------*           

Positions:
   0 H      4.703279    4.000233    6.396670    ( 0.0000,  0.0000,  0.0000)
   1 H      3.993505    5.182715    4.301885    ( 0.0000,  0.0000,  0.0000)
   2 H     15.534538    6.854775    9.322529    ( 0.0000,  0.0000,  0.0000)
   3 H      5.542979    5.285543    8.340335    ( 0.0000,  0.0000,  0.0000)
   4 H      4.969347    8.968331    6.114346    ( 0.0000,  0.0000,  0.0000)
   5 H     13.184140    6.169235    9.447937    ( 0.0000,  0.0000,  0.0000)
   6 H     12.502325    7.941798    5.555808    ( 0.0000,  0.0000,  0.0000)
   7 H      8.243899    8.178596   11.871073    ( 0.0000,  0.0000,  0.0000)
   8 H      7.046694    9.447802   12.289638    ( 0.0000,  0.0000,  0.0000)
   9 H      8.444361    9.857385   11.255949    ( 0.0000,  0.0000,  0.0000)
  10 H      9.390265    4.685019    7.155996    ( 0.0000,  0.0000,  0.0000)
  11 H      9.094892    4.405211    8.894213    ( 0.0000,  0.0000,  0.0000)
  12 H      8.836713    6.834630    6.170712    ( 0.0000,  0.0000,  0.0000)
  13 H      8.212073    8.146784    7.199443    ( 0.0000,  0.0000,  0.0000)
  14 H     10.884167    5.979982    9.521134    ( 0.0000,  0.0000,  0.0000)
  15 H     11.529812    4.748463    8.398768    ( 0.0000,  0.0000,  0.0000)
  16 H     10.616738    8.464588    6.644575    ( 0.0000,  0.0000,  0.0000)
  17 H     10.349726    8.352662    8.395711    ( 0.0000,  0.0000,  0.0000)
  18 O      8.140842    5.964530   10.412725    ( 0.0000,  0.0000,  0.0000)
  19 F      4.070794    7.772141    3.998406    ( 0.0000,  0.0000,  0.0000)
  20 Cl    17.035294    8.262449    7.385837    ( 0.0000,  0.0000,  0.0000)
  21 Cl    15.031449    8.966480    4.939891    ( 0.0000,  0.0000,  0.0000)
  22 N      5.242969    9.139692    8.839933    ( 0.0000,  0.0000,  0.0000)
  23 O      5.926956    9.588684    9.954750    ( 0.0000,  0.0000,  0.0000)
  24 C      7.914825    6.597844    9.372677    ( 0.0000,  0.0000,  0.0000)
  25 C      5.854029    8.010882    8.479110    ( 0.0000,  0.0000,  0.0000)
  26 C      6.911478    8.724106   10.293773    ( 0.0000,  0.0000,  0.0000)
  27 C      4.771226    5.088954    6.338281    ( 0.0000,  0.0000,  0.0000)
  28 C      4.370458    5.735418    5.167043    ( 0.0000,  0.0000,  0.0000)
  29 C     14.861658    7.093383    8.497000    ( 0.0000,  0.0000,  0.0000)
  30 C      5.254771    5.814938    7.427108    ( 0.0000,  0.0000,  0.0000)
  31 C      4.923918    7.878198    6.189872    ( 0.0000,  0.0000,  0.0000)
  32 C     13.523133    6.706757    8.561092    ( 0.0000,  0.0000,  0.0000)
  33 C     13.146948    7.722860    6.410726    ( 0.0000,  0.0000,  0.0000)
  34 C      4.453201    7.122943    5.124778    ( 0.0000,  0.0000,  0.0000)
  35 C     15.361717    7.800829    7.404581    ( 0.0000,  0.0000,  0.0000)
  36 C     14.483437    8.112641    6.351425    ( 0.0000,  0.0000,  0.0000)
  37 C      6.939744    7.709765    9.366524    ( 0.0000,  0.0000,  0.0000)
  38 C      5.340263    7.216678    7.353742    ( 0.0000,  0.0000,  0.0000)
  39 C     12.636225    7.020080    7.516141    ( 0.0000,  0.0000,  0.0000)
  40 N      8.511807    6.277221    8.164177    ( 0.0000,  0.0000,  0.0000)
  41 N     11.270088    6.640926    7.497909    ( 0.0000,  0.0000,  0.0000)
  42 C      7.711784    9.066538   11.496523    ( 0.0000,  0.0000,  0.0000)
  43 C      9.433304    5.149569    8.157512    ( 0.0000,  0.0000,  0.0000)
  44 C      8.896567    7.286572    7.176705    ( 0.0000,  0.0000,  0.0000)
  45 C     10.856491    5.619623    8.467032    ( 0.0000,  0.0000,  0.0000)
  46 C     10.324743    7.767469    7.444744    ( 0.0000,  0.0000,  0.0000)

Unit cell:
           periodic     x           y           z      points  spacing
  1. axis:    no    21.025900    0.000000    0.000000    98     0.2146
  2. axis:    no     0.000000   13.841300    0.000000    64     0.2163
  3. axis:    no     0.000000    0.000000   16.288100    80     0.2036

  Lengths:  21.025900  13.841300  16.288100
  Angles:   90.000000  90.000000  90.000000

Effective grid spacing dv^(1/3) = 0.2114

                     log10-error:    total        iterations:
           time      wfs    density  energy       poisson
iter:   1  15:35:01  -3.09         -288.557685           
iter:   2  15:35:27  -4.35  -2.77  -288.556991           
iter:   3  15:35:52  -4.23  -2.79  -288.553744           
iter:   4  15:36:18  -5.57  -3.06  -288.553702           
iter:   5  15:36:43  -5.15  -3.09  -288.553482           
iter:   6  15:37:09  -4.96  -3.31  -288.553348           
iter:   7  15:37:34  -5.87  -3.50  -288.553257           
iter:   8  15:38:00  -6.24  -3.69  -288.553249           
iter:   9  15:38:26  -6.70  -4.00  -288.553253           
iter:  10  15:38:52  -6.60  -3.99  -288.553247           
iter:  11  15:39:18  -8.15  -4.43  -288.553247           

Converged after 11 iterations.

Dipole moment: (0.006871, -0.433962, 0.136598) |e|*Ang

Energy contributions relative to reference atoms: (reference = -58155.862037)

Kinetic:       +219.420139
Potential:     -232.034650
External:        +0.000000
XC:            -275.905788
Entropy (-ST):   +0.000000
Local:           -0.032948
--------------------------
Free energy:   -288.553247
Extrapolated:  -288.553247

 Band  Eigenvalues  Occupancy
    0    -30.38725    2.00000
    1    -28.78251    2.00000
    2    -25.81578    2.00000
    3    -24.09991    2.00000
    4    -23.18842    2.00000
    5    -22.23526    2.00000
    6    -21.88210    2.00000
    7    -21.02714    2.00000
    8    -20.93535    2.00000
    9    -20.29510    2.00000
   10    -20.10726    2.00000
   11    -19.12421    2.00000
   12    -18.57039    2.00000
   13    -18.39674    2.00000
   14    -18.25712    2.00000
   15    -17.99261    2.00000
   16    -17.64868    2.00000
   17    -17.06711    2.00000
   18    -16.21201    2.00000
   19    -15.88150    2.00000
   20    -15.53635    2.00000
   21    -15.01940    2.00000
   22    -14.82845    2.00000
   23    -14.67493    2.00000
   24    -14.23001    2.00000
   25    -13.80035    2.00000
   26    -13.17382    2.00000
   27    -13.09314    2.00000
   28    -12.71831    2.00000
   29    -12.22103    2.00000
   30    -11.87503    2.00000
   31    -11.81532    2.00000
   32    -11.72507    2.00000
   33    -11.58797    2.00000
   34    -11.40397    2.00000
   35    -11.32713    2.00000
   36    -11.22593    2.00000
   37    -11.08980    2.00000
   38    -10.96566    2.00000
   39    -10.76302    2.00000
   40    -10.67680    2.00000
   41    -10.41440    2.00000
   42    -10.30857    2.00000
   43    -10.18162    2.00000
   44    -10.05965    2.00000
   45     -9.84691    2.00000
   46     -9.80911    2.00000
   47     -9.71906    2.00000
   48     -9.49198    2.00000
   49     -9.42783    2.00000
   50     -9.32863    2.00000
   51     -9.20526    2.00000
   52     -9.08355    2.00000
   53     -8.94540    2.00000
   54     -8.75962    2.00000
   55     -8.67606    2.00000
   56     -8.63225    2.00000
   57     -8.55919    2.00000
   58     -8.31980    2.00000
   59     -8.27537    2.00000
   60     -7.94730    2.00000
   61     -7.89197    2.00000
   62     -7.76443    2.00000
   63     -7.20284    2.00000
   64     -7.19285    2.00000
   65     -6.89271    2.00000
   66     -6.75754    2.00000
   67     -6.27740    2.00000
   68     -6.25739    2.00000
   69     -5.95298    2.00000
   70     -5.73445    2.00000
   71     -5.70158    2.00000
   72     -5.54785    2.00000
   73     -5.30593    2.00000
   74     -4.67474    2.00000
   75     -1.58943    0.00000
   76     -1.24230    0.00000
   77     -1.16151    0.00000
   78     -0.91297    0.00000
   79     -0.87889    0.00000
   80     -0.50913    0.00000
   81     -0.43485    0.00000
   82     -0.28702    0.00000
   83     -0.00454    0.00000
   84      0.17366    0.00000
   85      0.21706    0.00000
   86      0.37698    0.00000
   87      0.48057    0.00000
   88      0.61623    0.00000
   89      0.66731    0.00000
   90      0.74854    0.00000
   91      0.79457    0.00000
   92      0.85705    0.00000
   93      0.87792    0.00000

Fermi level: -3.13208

Gap: 3.085 eV
Transition (v -> c):
  (s=0, k=0, n=74, [0.00, 0.00, 0.00]) -> (s=0, k=0, n=75, [0.00, 0.00, 0.00])

Forces in eV/Ang:
  0 H    -0.00867   -0.04074    0.02581
  1 H     0.01468    0.02220    0.02120
  2 H     0.04809   -0.01544    0.02282
  3 H     0.03145    0.09042   -0.01288
  4 H     0.01007   -0.04248    0.00384
  5 H    -0.05984   -0.02460    0.00288
  6 H     0.00840    0.00958    0.01230
  7 H    -0.03990    0.03847   -0.08960
  8 H     0.06161   -0.00292   -0.03207
  9 H     0.00408   -0.01208    0.08508
 10 H     0.05864    0.06608   -0.02427
 11 H     0.07969    0.12181    0.06510
 12 H    -0.00506   -0.03062    0.01324
 13 H    -0.04102   -0.06396    0.08803
 14 H    -0.03034    0.03478   -0.09251
 15 H     0.13072    0.11857   -0.07063
 16 H     0.08332   -0.05734   -0.03691
 17 H    -0.05503   -0.10563   -0.01250
 18 O     0.10037   -0.24732    0.23127
 19 F    -0.02401    0.02340   -0.04555
 20 Cl   -0.11060    0.00529   -0.07044
 21 Cl    0.03040   -0.03057    0.08037
 22 N     0.08255   -0.14033    0.05201
 23 O    -0.08547   -0.01044    0.09294
 24 C    -0.03137    0.09507   -0.32096
 25 C     0.03374   -0.12516    0.13733
 26 C    -0.00375    0.05135   -0.07222
 27 C     0.00486    0.05307   -0.00304
 28 C    -0.03069    0.03099   -0.03162
 29 C    -0.07855   -0.01851   -0.02925
 30 C    -0.00411    0.01352   -0.05673
 31 C    -0.02317   -0.01896   -0.06116
 32 C     0.00055   -0.01896   -0.02997
 33 C     0.06790    0.03664   -0.00516
 34 C     0.00760    0.00802    0.03846
 35 C    -0.00139   -0.00848    0.00683
 36 C    -0.02483    0.03114   -0.02358
 37 C     0.01818    0.09380    0.01899
 38 C     0.03788    0.02536   -0.03665
 39 C    -0.00525    0.01100   -0.03486
 40 N     0.01619    0.02347    0.08909
 41 N    -0.02268   -0.00363    0.13942
 42 C    -0.02593   -0.01483   -0.08969
 43 C     0.07489    0.03846    0.00844
 44 C     0.03915   -0.00812    0.04350
 45 C    -0.02301   -0.08547    0.06015
 46 C    -0.01529    0.02996   -0.00699

System changes: positions 

Initializing position-dependent things.

Density initialized from wave functions
          .---------------------------------------------------.  
         /|                                                   |  
        / |                                                   |  
       /  |                                                   |  
      /   |                                                   |  
     /    |                                                   |  
    /     |                                                   |  
   /      |                                                   |  
  /       |              H                                    |  
 *        |               CHH                                 |  
 |        |                                                   |  
 |        |           O C                                     |  
 |        |         N  C O                                    |  
 |        |          C   C      H     H     H                 |  
 |        |                            C  C                   |  
 |        |       HC      HHC   CN   C      C    Cl           |  
 |        |       CH        C    H     C  C                   |  
 |        |                H         H      Cl                |  
 |        |     CC                                            |  
 |        |    HC                                             |  
 |        .---H-----------------------------------------------.  
 |       /                                                   /   
 |      /                                                   /    
 |     /                                                   /     
 |    /                                                   /      
 |   /                                                   /       
 |  /                                                   /        
 | /                                                   /         
 |/                                                   /          
 *---------------------------------------------------*           

Positions:
   0 H      4.702980    4.000005    6.397480    ( 0.0000,  0.0000,  0.0000)
   1 H      3.992537    5.181754    4.298753    ( 0.0000,  0.0000,  0.0000)
   2 H     15.536084    6.855247    9.321745    ( 0.0000,  0.0000,  0.0000)
   3 H      5.545035    5.288766    8.342261    ( 0.0000,  0.0000,  0.0000)
   4 H      4.970290    8.970139    6.115067    ( 0.0000,  0.0000,  0.0000)
   5 H     13.180465    6.166922    9.450218    ( 0.0000,  0.0000,  0.0000)
   6 H     12.502201    7.942806    5.554709    ( 0.0000,  0.0000,  0.0000)
   7 H      8.243474    8.175777   11.867063    ( 0.0000,  0.0000,  0.0000)
   8 H      7.047210    9.449271   12.288915    ( 0.0000,  0.0000,  0.0000)
   9 H      8.446204    9.859976   11.259157    ( 0.0000,  0.0000,  0.0000)
  10 H      9.393151    4.688569    7.154239    ( 0.0000,  0.0000,  0.0000)
  11 H      9.097588    4.413644    8.897187    ( 0.0000,  0.0000,  0.0000)
  12 H      8.837572    6.833612    6.169822    ( 0.0000,  0.0000,  0.0000)
  13 H      8.210660    8.142616    7.204502    ( 0.0000,  0.0000,  0.0000)
  14 H     10.881465    5.979492    9.520940    ( 0.0000,  0.0000,  0.0000)
  15 H     11.534217    4.757063    8.394827    ( 0.0000,  0.0000,  0.0000)
  16 H     10.621184    8.457446    6.646121    ( 0.0000,  0.0000,  0.0000)
  17 H     10.346169    8.350321    8.395913    ( 0.0000,  0.0000,  0.0000)
  18 O      8.145459    5.956488   10.415472    ( 0.0000,  0.0000,  0.0000)
  19 F      4.071067    7.773472    3.998628    ( 0.0000,  0.0000,  0.0000)
  20 Cl    17.034332    8.264382    7.381574    ( 0.0000,  0.0000,  0.0000)
  21 Cl    15.034239    8.965713    4.942293    ( 0.0000,  0.0000,  0.0000)
  22 N      5.239035    9.134957    8.842299    ( 0.0000,  0.0000,  0.0000)
  23 O      5.924360    9.588463    9.955034    ( 0.0000,  0.0000,  0.0000)
  24 C      7.918095    6.597471    9.373203    ( 0.0000,  0.0000,  0.0000)
  25 C      5.855571    8.010207    8.478657    ( 0.0000,  0.0000,  0.0000)
  26 C      6.911636    8.725754   10.292562    ( 0.0000,  0.0000,  0.0000)
  27 C      4.770713    5.089621    6.337945    ( 0.0000,  0.0000,  0.0000)
  28 C      4.368953    5.734648    5.165310    ( 0.0000,  0.0000,  0.0000)
  29 C     14.860484    7.091438    8.496669    ( 0.0000,  0.0000,  0.0000)
  30 C      5.255966    5.815543    7.426900    ( 0.0000,  0.0000,  0.0000)
  31 C      4.923353    7.879423    6.188404    ( 0.0000,  0.0000,  0.0000)
  32 C     13.520676    6.704370    8.561856    ( 0.0000,  0.0000,  0.0000)
  33 C     13.146298    7.723934    6.410536    ( 0.0000,  0.0000,  0.0000)
  34 C      4.452429    7.122485    5.124634    ( 0.0000,  0.0000,  0.0000)
  35 C     15.361147    7.800370    7.404751    ( 0.0000,  0.0000,  0.0000)
  36 C     14.482797    8.113903    6.352394    ( 0.0000,  0.0000,  0.0000)
  37 C      6.940979    7.709631    9.366928    ( 0.0000,  0.0000,  0.0000)
  38 C      5.341384    7.217887    7.351737    ( 0.0000,  0.0000,  0.0000)
  39 C     12.635612    7.019341    7.515440    ( 0.0000,  0.0000,  0.0000)
  40 N      8.515283    6.278013    8.167316    ( 0.0000,  0.0000,  0.0000)
  41 N     11.269048    6.639419    7.496351    ( 0.0000,  0.0000,  0.0000)
  42 C      7.713229    9.067144   11.495919    ( 0.0000,  0.0000,  0.0000)
  43 C      9.436981    5.151527    8.156679    ( 0.0000,  0.0000,  0.0000)
  44 C      8.896496    7.284628    7.177280    ( 0.0000,  0.0000,  0.0000)
  45 C     10.857302    5.621489    8.467181    ( 0.0000,  0.0000,  0.0000)
  46 C     10.323794    7.766103    7.445941    ( 0.0000,  0.0000,  0.0000)

Unit cell:
           periodic     x           y           z      points  spacing
  1. axis:    no    21.025900    0.000000    0.000000    98     0.2146
  2. axis:    no     0.000000   13.841300    0.000000    64     0.2163
  3. axis:    no     0.000000    0.000000   16.288100    80     0.2036

  Lengths:  21.025900  13.841300  16.288100
  Angles:   90.000000  90.000000  90.000000

Effective grid spacing dv^(1/3) = 0.2114

                     log10-error:    total        iterations:
           time      wfs    density  energy       poisson
iter:   1  15:40:05  -3.34         -288.566862           
iter:   2  15:40:31  -4.68  -2.85  -288.565561           
iter:   3  15:40:58  -3.98  -2.88  -288.562224           
iter:   4  15:41:24  -5.13  -3.18  -288.562195           
iter:   5  15:41:50  -5.37  -3.18  -288.562027           
iter:   6  15:42:16  -4.92  -3.31  -288.561741           
iter:   7  15:42:40  -6.04  -3.58  -288.561684           
iter:   8  15:43:07  -6.55  -3.86  -288.561680           
iter:   9  15:43:32  -6.72  -4.08  -288.561683           
iter:  10  15:43:58  -6.51  -4.10  -288.561680           
iter:  11  15:44:24  -8.00  -4.42  -288.561678           

Converged after 11 iterations.

Dipole moment: (0.011411, -0.425954, 0.127336) |e|*Ang

Energy contributions relative to reference atoms: (reference = -58155.862037)

Kinetic:       +218.851672
Potential:     -231.596792
External:        +0.000000
XC:            -275.782759
Entropy (-ST):   +0.000000
Local:           -0.033799
--------------------------
Free energy:   -288.561678
Extrapolated:  -288.561678

 Band  Eigenvalues  Occupancy
    0    -30.38306    2.00000
    1    -28.77901    2.00000
    2    -25.75683    2.00000
    3    -24.10592    2.00000
    4    -23.19457    2.00000
    5    -22.24119    2.00000
    6    -21.88442    2.00000
    7    -21.02447    2.00000
    8    -20.93589    2.00000
    9    -20.29736    2.00000
   10    -20.10764    2.00000
   11    -19.13830    2.00000
   12    -18.57192    2.00000
   13    -18.40146    2.00000
   14    -18.25499    2.00000
   15    -17.99510    2.00000
   16    -17.64542    2.00000
   17    -17.07412    2.00000
   18    -16.22077    2.00000
   19    -15.88393    2.00000
   20    -15.54183    2.00000
   21    -15.02024    2.00000
   22    -14.83053    2.00000
   23    -14.67328    2.00000
   24    -14.23219    2.00000
   25    -13.79922    2.00000
   26    -13.17431    2.00000
   27    -13.09320    2.00000
   28    -12.72002    2.00000
   29    -12.22534    2.00000
   30    -11.87756    2.00000
   31    -11.81536    2.00000
   32    -11.72661    2.00000
   33    -11.59012    2.00000
   34    -11.40257    2.00000
   35    -11.33783    2.00000
   36    -11.23602    2.00000
   37    -11.09257    2.00000
   38    -10.96591    2.00000
   39    -10.76115    2.00000
   40    -10.68061    2.00000
   41    -10.41304    2.00000
   42    -10.30623    2.00000
   43    -10.18266    2.00000
   44    -10.05808    2.00000
   45     -9.83256    2.00000
   46     -9.80260    2.00000
   47     -9.71733    2.00000
   48     -9.49495    2.00000
   49     -9.43278    2.00000
   50     -9.33303    2.00000
   51     -9.20677    2.00000
   52     -9.07855    2.00000
   53     -8.94062    2.00000
   54     -8.75725    2.00000
   55     -8.68065    2.00000
   56     -8.63070    2.00000
   57     -8.56026    2.00000
   58     -8.31590    2.00000
   59     -8.26608    2.00000
   60     -7.94834    2.00000
   61     -7.89266    2.00000
   62     -7.76842    2.00000
   63     -7.20817    2.00000
   64     -7.19314    2.00000
   65     -6.89620    2.00000
   66     -6.75511    2.00000
   67     -6.27802    2.00000
   68     -6.25473    2.00000
   69     -5.95429    2.00000
   70     -5.73673    2.00000
   71     -5.70413    2.00000
   72     -5.54992    2.00000
   73     -5.30618    2.00000
   74     -4.68227    2.00000
   75     -1.59305    0.00000
   76     -1.25392    0.00000
   77     -1.16906    0.00000
   78     -0.91643    0.00000
   79     -0.88441    0.00000
   80     -0.51009    0.00000
   81     -0.44468    0.00000
   82     -0.28479    0.00000
   83     -0.00471    0.00000
   84      0.17375    0.00000
   85      0.21820    0.00000
   86      0.37944    0.00000
   87      0.48135    0.00000
   88      0.61699    0.00000
   89      0.66726    0.00000
   90      0.74877    0.00000
   91      0.79466    0.00000
   92      0.85718    0.00000
   93      0.87716    0.00000

Fermi level: -3.13766

Gap: 3.089 eV
Transition (v -> c):
  (s=0, k=0, n=74, [0.00, 0.00, 0.00]) -> (s=0, k=0, n=75, [0.00, 0.00, 0.00])

Forces in eV/Ang:
  0 H    -0.00820   -0.01131    0.02238
  1 H     0.02552    0.03936    0.05447
  2 H     0.02050   -0.02149    0.01038
  3 H     0.02220    0.08964   -0.04305
  4 H     0.00087   -0.06282   -0.01164
  5 H    -0.03929    0.00262   -0.04442
  6 H     0.01354    0.00708    0.02453
  7 H    -0.04533    0.06703   -0.08408
  8 H     0.07746   -0.02592   -0.04147
  9 H    -0.00973   -0.04360    0.07634
 10 H     0.05086    0.05812   -0.00582
 11 H     0.07534    0.05284    0.07294
 12 H    -0.01848   -0.02830    0.04837
 13 H    -0.04761   -0.03495    0.06486
 14 H    -0.01130    0.06005   -0.06515
 15 H     0.15929    0.02377   -0.04670
 16 H     0.07034    0.01860   -0.08250
 17 H    -0.03754   -0.08756    0.01795
 18 O    -0.02264   -0.05840   -0.08551
 19 F    -0.03157    0.00806   -0.05180
 20 Cl   -0.12249   -0.00924   -0.04953
 21 Cl    0.02649   -0.01674    0.05970
 22 N     0.09716   -0.10901    0.03889
 23 O    -0.08223   -0.06111    0.09400
 24 C    -0.00127   -0.08867    0.00263
 25 C    -0.00308   -0.13488    0.13830
 26 C     0.00975    0.06166   -0.04592
 27 C     0.00679    0.01635    0.00250
 28 C    -0.01694    0.03898   -0.00207
 29 C    -0.06835   -0.01346   -0.00948
 30 C    -0.01591    0.03530   -0.08408
 31 C    -0.00180   -0.03110   -0.02096
 32 C     0.05296   -0.00359   -0.02891
 33 C     0.06511    0.02468    0.00501
 34 C    -0.00029    0.03231    0.00532
 35 C    -0.02177   -0.01723    0.01891
 36 C    -0.03169    0.01400   -0.02349
 37 C     0.05560    0.08259    0.03518
 38 C     0.04081   -0.01384   -0.00983
 39 C    -0.01897    0.01469   -0.02884
 40 N     0.04290    0.01969    0.00448
 41 N    -0.00502    0.05235    0.17425
 42 C    -0.04517   -0.00059   -0.09263
 43 C     0.03033    0.01598    0.02339
 44 C     0.03546    0.01237    0.02586
 45 C    -0.02283   -0.06425    0.01807
[...]

Positions:
   0 H      4.688371    3.998874    6.385840    ( 0.0000,  0.0000,  0.0000)
   1 H      3.969339    5.198867    4.296536    ( 0.0000,  0.0000,  0.0000)
   2 H     15.536378    6.827144    9.306062    ( 0.0000,  0.0000,  0.0000)
   3 H      5.580297    5.287227    8.314491    ( 0.0000,  0.0000,  0.0000)
   4 H      4.987325    8.964831    6.118252    ( 0.0000,  0.0000,  0.0000)
   5 H     13.170829    6.162160    9.425481    ( 0.0000,  0.0000,  0.0000)
   6 H     12.508965    7.978471    5.555883    ( 0.0000,  0.0000,  0.0000)
   7 H      8.255181    8.169059   11.830596    ( 0.0000,  0.0000,  0.0000)
   8 H      7.071411    9.434167   12.302481    ( 0.0000,  0.0000,  0.0000)
   9 H      8.430280    9.852814   11.237908    ( 0.0000,  0.0000,  0.0000)
  10 H      9.457975    4.683533    7.173957    ( 0.0000,  0.0000,  0.0000)
  11 H      9.171326    4.419603    8.933369    ( 0.0000,  0.0000,  0.0000)
  12 H      8.827326    6.822485    6.184600    ( 0.0000,  0.0000,  0.0000)
  13 H      8.202661    8.117977    7.248498    ( 0.0000,  0.0000,  0.0000)
  14 H     10.924672    6.018214    9.522209    ( 0.0000,  0.0000,  0.0000)
  15 H     11.613189    4.805671    8.396148    ( 0.0000,  0.0000,  0.0000)
  16 H     10.623302    8.462356    6.635939    ( 0.0000,  0.0000,  0.0000)
  17 H     10.338179    8.352870    8.393416    ( 0.0000,  0.0000,  0.0000)
  18 O      8.094151    5.870624   10.390643    ( 0.0000,  0.0000,  0.0000)
  19 F      4.070478    7.782508    3.995732    ( 0.0000,  0.0000,  0.0000)
  20 Cl    17.032235    8.260080    7.377144    ( 0.0000,  0.0000,  0.0000)
  21 Cl    15.056281    8.982359    4.949941    ( 0.0000,  0.0000,  0.0000)
  22 N      5.163337    9.055927    8.901167    ( 0.0000,  0.0000,  0.0000)
  23 O      5.823910    9.512848   10.022559    ( 0.0000,  0.0000,  0.0000)
  24 C      7.917120    6.564160    9.372013    ( 0.0000,  0.0000,  0.0000)
  25 C      5.835964    7.975178    8.501934    ( 0.0000,  0.0000,  0.0000)
  26 C      6.876158    8.703644   10.309735    ( 0.0000,  0.0000,  0.0000)
  27 C      4.773680    5.087339    6.319590    ( 0.0000,  0.0000,  0.0000)
  28 C      4.361438    5.743999    5.157965    ( 0.0000,  0.0000,  0.0000)
  29 C     14.862982    7.081313    8.485109    ( 0.0000,  0.0000,  0.0000)
  30 C      5.279542    5.806334    7.401068    ( 0.0000,  0.0000,  0.0000)
  31 C      4.942228    7.876065    6.184239    ( 0.0000,  0.0000,  0.0000)
  32 C     13.524683    6.703536    8.546142    ( 0.0000,  0.0000,  0.0000)
  33 C     13.153171    7.752337    6.407509    ( 0.0000,  0.0000,  0.0000)
  34 C      4.459501    7.129994    5.118897    ( 0.0000,  0.0000,  0.0000)
  35 C     15.362799    7.800544    7.400882    ( 0.0000,  0.0000,  0.0000)
  36 C     14.489710    8.131674    6.351035    ( 0.0000,  0.0000,  0.0000)
  37 C      6.945926    7.701841    9.369989    ( 0.0000,  0.0000,  0.0000)
  38 C      5.359060    7.206104    7.342541    ( 0.0000,  0.0000,  0.0000)
  39 C     12.643514    7.042337    7.506916    ( 0.0000,  0.0000,  0.0000)
  40 N      8.551926    6.266326    8.182524    ( 0.0000,  0.0000,  0.0000)
  41 N     11.283539    6.662175    7.501004    ( 0.0000,  0.0000,  0.0000)
  42 C      7.705661    9.057263   11.485338    ( 0.0000,  0.0000,  0.0000)
  43 C      9.489159    5.149044    8.175905    ( 0.0000,  0.0000,  0.0000)
  44 C      8.904038    7.274366    7.189974    ( 0.0000,  0.0000,  0.0000)
  45 C     10.900674    5.643352    8.474904    ( 0.0000,  0.0000,  0.0000)
  46 C     10.327405    7.773630    7.440790    ( 0.0000,  0.0000,  0.0000)

Unit cell:
           periodic     x           y           z      points  spacing
  1. axis:    no    21.025900    0.000000    0.000000    98     0.2146
  2. axis:    no     0.000000   13.841300    0.000000    64     0.2163
  3. axis:    no     0.000000    0.000000   16.288100    80     0.2036

  Lengths:  21.025900  13.841300  16.288100
  Angles:   90.000000  90.000000  90.000000

Effective grid spacing dv^(1/3) = 0.2114

                     log10-error:    total        iterations:
           time      wfs    density  energy       poisson
iter:   1  16:57:21  -3.39         -288.631151           
iter:   2  16:57:46  -4.70  -3.00  -288.631064           
iter:   3  16:58:10  -4.77  -3.01  -288.630061           
iter:   4  16:58:35  -5.72  -3.37  -288.630038           
iter:   5  16:59:01  -5.83  -3.43  -288.629999           
iter:   6  16:59:26  -5.93  -3.63  -288.629979           
iter:   7  16:59:51  -6.71  -3.81  -288.629971           
iter:   8  17:00:16  -6.91  -4.01  -288.629969           
iter:   9  17:00:42  -7.54  -4.26  -288.629968           

Converged after 9 iterations.

Dipole moment: (0.057908, -0.398778, 0.107821) |e|*Ang

Energy contributions relative to reference atoms: (reference = -58155.862037)

Kinetic:       +221.680615
Potential:     -233.733137
External:        +0.000000
XC:            -276.485858
Entropy (-ST):   +0.000000
Local:           -0.091588
--------------------------
Free energy:   -288.629968
Extrapolated:  -288.629968

 Band  Eigenvalues  Occupancy
    0    -30.37614    2.00000
    1    -28.77927    2.00000
    2    -25.77703    2.00000
    3    -24.17790    2.00000
    4    -23.24378    2.00000
    5    -22.27588    2.00000
    6    -21.85586    2.00000
    7    -21.01651    2.00000
    8    -20.95118    2.00000
    9    -20.32418    2.00000
   10    -20.12238    2.00000
   11    -19.19274    2.00000
   12    -18.56575    2.00000
   13    -18.42242    2.00000
   14    -18.26587    2.00000
   15    -18.02641    2.00000
   16    -17.64582    2.00000
   17    -17.08050    2.00000
   18    -16.27683    2.00000
   19    -15.88340    2.00000
   20    -15.55165    2.00000
   21    -15.02854    2.00000
   22    -14.84238    2.00000
   23    -14.67387    2.00000
   24    -14.23652    2.00000
   25    -13.80473    2.00000
   26    -13.18853    2.00000
   27    -13.07597    2.00000
   28    -12.74578    2.00000
   29    -12.25780    2.00000
   30    -11.91112    2.00000
   31    -11.82752    2.00000
   32    -11.72332    2.00000
   33    -11.60866    2.00000
   34    -11.40871    2.00000
   35    -11.37680    2.00000
   36    -11.27635    2.00000
   37    -11.13730    2.00000
   38    -10.99106    2.00000
   39    -10.75761    2.00000
   40    -10.69397    2.00000
   41    -10.43720    2.00000
   42    -10.31734    2.00000
   43    -10.21844    2.00000
   44    -10.06929    2.00000
   45     -9.82030    2.00000
   46     -9.80732    2.00000
   47     -9.74050    2.00000
   48     -9.51984    2.00000
   49     -9.45048    2.00000
   50     -9.34323    2.00000
   51     -9.22929    2.00000
   52     -9.07708    2.00000
   53     -8.95138    2.00000
   54     -8.78495    2.00000
   55     -8.68611    2.00000
   56     -8.64310    2.00000
   57     -8.55524    2.00000
   58     -8.34538    2.00000
   59     -8.28092    2.00000
   60     -7.94363    2.00000
   61     -7.90087    2.00000
   62     -7.79622    2.00000
   63     -7.21573    2.00000
   64     -7.16571    2.00000
   65     -6.87331    2.00000
   66     -6.74079    2.00000
   67     -6.29450    2.00000
   68     -6.26086    2.00000
   69     -5.96255    2.00000
   70     -5.73968    2.00000
   71     -5.70310    2.00000
   72     -5.57016    2.00000
   73     -5.33358    2.00000
   74     -4.66959    2.00000
   75     -1.55499    0.00000
   76     -1.23381    0.00000
   77     -1.15181    0.00000
   78     -0.89925    0.00000
   79     -0.86742    0.00000
   80     -0.49663    0.00000
   81     -0.44598    0.00000
   82     -0.28982    0.00000
   83     -0.00834    0.00000
   84      0.16549    0.00000
   85      0.22108    0.00000
   86      0.38006    0.00000
   87      0.48110    0.00000
   88      0.61354    0.00000
   89      0.67282    0.00000
   90      0.74087    0.00000
   91      0.80325    0.00000
   92      0.86543    0.00000
   93      0.87153    0.00000

Fermi level: -3.11229

Gap: 3.115 eV
Transition (v -> c):
  (s=0, k=0, n=74, [0.00, 0.00, 0.00]) -> (s=0, k=0, n=75, [0.00, 0.00, 0.00])

Forces in eV/Ang:
  0 H     0.01417    0.00399   -0.02644
  1 H    -0.01261    0.00376   -0.01445
  2 H     0.05046   -0.00342    0.01048
  3 H     0.00311   -0.02275   -0.00350
  4 H    -0.00127    0.02956   -0.00669
  5 H     0.01647   -0.00336   -0.01113
  6 H    -0.02073    0.02906   -0.02107
  7 H    -0.01774    0.02267   -0.00677
  8 H    -0.00131   -0.02957    0.01718
  9 H     0.00576   -0.01145    0.00026
 10 H    -0.01559    0.01939    0.03053
 11 H     0.00481    0.01310    0.00439
 12 H    -0.00569    0.01083    0.01214
 13 H    -0.01037   -0.00052   -0.02223
 14 H    -0.00627    0.00799   -0.00588
 15 H    -0.00250    0.00317    0.01410
 16 H     0.00954    0.01180   -0.01676
 17 H     0.00098   -0.01113    0.00374
 18 O     0.04983    0.01544   -0.00270
 19 F     0.00011    0.00355   -0.00075
 20 Cl    0.01970    0.01071   -0.02713
 21 Cl    0.01960    0.02107    0.00318
 22 N     0.02555   -0.00562   -0.01884
 23 O     0.00766   -0.01510   -0.01760
 24 C    -0.04504   -0.04368   -0.00186
 25 C     0.00294   -0.05077    0.01506
 26 C    -0.00119   -0.02300    0.03017
 27 C     0.01133   -0.01619    0.00504
 28 C     0.00224   -0.01276    0.00070
 29 C     0.03066   -0.01447    0.01501
 30 C    -0.01073    0.00487    0.01554
 31 C    -0.02178    0.02581   -0.00297
 32 C     0.00246    0.01554    0.00004
 33 C     0.00103    0.03576   -0.01373
 34 C    -0.00292   -0.02161   -0.01307
 35 C     0.01891   -0.00664    0.01508
 36 C     0.01832    0.00520    0.00543
 37 C    -0.00311   -0.03807    0.02388
 38 C    -0.01786   -0.00102   -0.00112
 39 C    -0.00118    0.01362   -0.01882
 40 N     0.06493    0.05434    0.03817
 41 N    -0.01621    0.01391    0.02776
 42 C    -0.01238    0.01105   -0.00796
 43 C     0.00769    0.02194    0.02053
 44 C     0.00480    0.01302    0.01060
 45 C    -0.01057    0.00342   -0.00217
 46 C    -0.00601    0.00570   -0.01512

System changes: positions 

Initializing position-dependent things.

Density initialized from wave functions
          .---------------------------------------------------.  
         /|                                                   |  
        / |                                                   |  
       /  |                                                   |  
      /   |                                                   |  
     /    |                                                   |  
    /     |                                                   |  
   /      |                                                   |  
  /       |              H                                    |  
 *        |               CHH                                 |  
 |        |                                                   |  
 |        |           O C                                     |  
 |        |         N  C O                                    |  
 |        |          C   C      H     H     H                 |  
 |        |                            C  C                   |  
 |        |       HC      NHC   CN   C      C   Cl            |  
 |        |       CH        C    H     C  C                   |  
 |        |                H         H      Cl                |  
 |        |     CC                                            |  
 |        |    HC                                             |  
 |        .---H-----------------------------------------------.  
 |       /                                                   /   
 |      /                                                   /    
 |     /                                                   /     
 |    /                                                   /      
 |   /                                                   /       
 |  /                                                   /        
 | /                                                   /         
 |/                                                   /          
 *---------------------------------------------------*           

Positions:
   0 H      4.688745    3.999046    6.385286    ( 0.0000,  0.0000,  0.0000)
   1 H      3.969084    5.198930    4.296142    ( 0.0000,  0.0000,  0.0000)
   2 H     15.537843    6.827063    9.306553    ( 0.0000,  0.0000,  0.0000)
   3 H      5.580441    5.286925    8.314542    ( 0.0000,  0.0000,  0.0000)
   4 H      4.987284    8.965627    6.118079    ( 0.0000,  0.0000,  0.0000)
   5 H     13.170923    6.161914    9.425397    ( 0.0000,  0.0000,  0.0000)
   6 H     12.508420    7.979216    5.555280    ( 0.0000,  0.0000,  0.0000)
   7 H      8.254668    8.169246   11.830135    ( 0.0000,  0.0000,  0.0000)
   8 H      7.071003    9.433563   12.303173    ( 0.0000,  0.0000,  0.0000)
   9 H      8.431012    9.852994   11.238026    ( 0.0000,  0.0000,  0.0000)
  10 H      9.457476    4.684494    7.174630    ( 0.0000,  0.0000,  0.0000)
  11 H      9.171388    4.420299    8.933805    ( 0.0000,  0.0000,  0.0000)
  12 H      8.827170    6.822583    6.184952    ( 0.0000,  0.0000,  0.0000)
  13 H      8.202071    8.118020    7.248149    ( 0.0000,  0.0000,  0.0000)
  14 H     10.924074    6.018379    9.521966    ( 0.0000,  0.0000,  0.0000)
  15 H     11.613259    4.806038    8.396177    ( 0.0000,  0.0000,  0.0000)
  16 H     10.623908    8.462365    6.635166    ( 0.0000,  0.0000,  0.0000)
  17 H     10.337857    8.352266    8.393812    ( 0.0000,  0.0000,  0.0000)
  18 O      8.095587    5.870765   10.390816    ( 0.0000,  0.0000,  0.0000)
  19 F      4.070525    7.782440    3.995903    ( 0.0000,  0.0000,  0.0000)
  20 Cl    17.032243    8.260342    7.376200    ( 0.0000,  0.0000,  0.0000)
  21 Cl    15.056778    8.982599    4.950608    ( 0.0000,  0.0000,  0.0000)
  22 N      5.164273    9.055422    8.900581    ( 0.0000,  0.0000,  0.0000)
  23 O      5.824526    9.512674   10.021771    ( 0.0000,  0.0000,  0.0000)
  24 C      7.916481    6.563142    9.371708    ( 0.0000,  0.0000,  0.0000)
  25 C      5.836319    7.973795    8.502116    ( 0.0000,  0.0000,  0.0000)
  26 C      6.876237    8.703154   10.310245    ( 0.0000,  0.0000,  0.0000)
  27 C      4.773922    5.087316    6.319669    ( 0.0000,  0.0000,  0.0000)
  28 C      4.361484    5.743672    5.157999    ( 0.0000,  0.0000,  0.0000)
  29 C     14.863691    7.080908    8.485472    ( 0.0000,  0.0000,  0.0000)
  30 C      5.279023    5.806523    7.401387    ( 0.0000,  0.0000,  0.0000)
  31 C      4.941498    7.876664    6.183984    ( 0.0000,  0.0000,  0.0000)
  32 C     13.524953    6.703908    8.546088    ( 0.0000,  0.0000,  0.0000)
  33 C     13.153220    7.753180    6.406983    ( 0.0000,  0.0000,  0.0000)
  34 C      4.459477    7.129489    5.118830    ( 0.0000,  0.0000,  0.0000)
  35 C     15.363116    7.800554    7.401156    ( 0.0000,  0.0000,  0.0000)
  36 C     14.490112    8.131693    6.351013    ( 0.0000,  0.0000,  0.0000)
  37 C      6.945782    7.700952    9.370432    ( 0.0000,  0.0000,  0.0000)
  38 C      5.358317    7.206239    7.342236    ( 0.0000,  0.0000,  0.0000)
  39 C     12.643490    7.042783    7.506542    ( 0.0000,  0.0000,  0.0000)
  40 N      8.553778    6.267584    8.183629    ( 0.0000,  0.0000,  0.0000)
  41 N     11.283186    6.662337    7.501505    ( 0.0000,  0.0000,  0.0000)
  42 C      7.705704    9.057933   11.485457    ( 0.0000,  0.0000,  0.0000)
  43 C      9.489650    5.149394    8.176493    ( 0.0000,  0.0000,  0.0000)
  44 C      8.904125    7.274884    7.190126    ( 0.0000,  0.0000,  0.0000)
  45 C     10.900408    5.643151    8.475129    ( 0.0000,  0.0000,  0.0000)
  46 C     10.327343    7.774080    7.440452    ( 0.0000,  0.0000,  0.0000)

Unit cell:
           periodic     x           y           z      points  spacing
  1. axis:    no    21.025900    0.000000    0.000000    98     0.2146
  2. axis:    no     0.000000   13.841300    0.000000    64     0.2163
  3. axis:    no     0.000000    0.000000   16.288100    80     0.2036

  Lengths:  21.025900  13.841300  16.288100
  Angles:   90.000000  90.000000  90.000000

Effective grid spacing dv^(1/3) = 0.2114

                     log10-error:    total        iterations:
           time      wfs    density  energy       poisson
iter:   1  17:01:30  -4.52         -288.631136           
iter:   2  17:01:55  -5.84  -3.51  -288.631109           
iter:   3  17:02:20  -5.49  -3.54  -288.630990           
iter:   4  17:02:45  -7.13  -3.88  -288.630993           
iter:   5  17:03:11  -6.93  -3.87  -288.630992           
iter:   6  17:03:36  -6.18  -3.96  -288.630983           
iter:   7  17:04:01  -7.46  -4.23  -288.630980           

Converged after 7 iterations.

Dipole moment: (0.056970, -0.399152, 0.107000) |e|*Ang

Energy contributions relative to reference atoms: (reference = -58155.862037)

Kinetic:       +221.645756
Potential:     -233.700698
External:        +0.000000
XC:            -276.480606
Entropy (-ST):   +0.000000
Local:           -0.095432
--------------------------
Free energy:   -288.630980
Extrapolated:  -288.630980

 Band  Eigenvalues  Occupancy
    0    -30.37606    2.00000
    1    -28.78005    2.00000
    2    -25.77655    2.00000
    3    -24.17736    2.00000
    4    -23.24257    2.00000
    5    -22.27672    2.00000
    6    -21.85535    2.00000
    7    -21.01612    2.00000
    8    -20.95235    2.00000
    9    -20.32221    2.00000
   10    -20.12190    2.00000
   11    -19.19715    2.00000
   12    -18.56623    2.00000
   13    -18.42222    2.00000
   14    -18.26612    2.00000
   15    -18.02521    2.00000
   16    -17.64492    2.00000
   17    -17.08031    2.00000
   18    -16.27750    2.00000
   19    -15.88313    2.00000
   20    -15.55124    2.00000
   21    -15.02938    2.00000
   22    -14.84083    2.00000
   23    -14.67340    2.00000
   24    -14.23616    2.00000
   25    -13.80505    2.00000
   26    -13.18907    2.00000
   27    -13.07483    2.00000
   28    -12.74479    2.00000
   29    -12.25886    2.00000
   30    -11.90974    2.00000
   31    -11.82696    2.00000
   32    -11.72515    2.00000
   33    -11.60902    2.00000
   34    -11.40860    2.00000
   35    -11.37826    2.00000
   36    -11.27639    2.00000
   37    -11.13571    2.00000
   38    -10.99086    2.00000
   39    -10.75776    2.00000
   40    -10.69432    2.00000
   41    -10.43691    2.00000
   42    -10.31881    2.00000
   43    -10.21906    2.00000
   44    -10.06921    2.00000
   45     -9.81813    2.00000
   46     -9.80912    2.00000
   47     -9.74147    2.00000
   48     -9.52265    2.00000
   49     -9.45073    2.00000
   50     -9.34293    2.00000
   51     -9.23001    2.00000
   52     -9.07678    2.00000
   53     -8.95056    2.00000
   54     -8.78470    2.00000
   55     -8.68713    2.00000
   56     -8.64342    2.00000
   57     -8.55623    2.00000
   58     -8.34436    2.00000
   59     -8.28065    2.00000
   60     -7.94409    2.00000
   61     -7.90134    2.00000
   62     -7.79516    2.00000
   63     -7.21631    2.00000
   64     -7.16572    2.00000
   65     -6.87139    2.00000
   66     -6.73961    2.00000
   67     -6.29284    2.00000
   68     -6.26014    2.00000
   69     -5.96172    2.00000
   70     -5.73826    2.00000
   71     -5.70159    2.00000
   72     -5.56909    2.00000
   73     -5.33157    2.00000
   74     -4.66741    2.00000
   75     -1.55532    0.00000
   76     -1.23352    0.00000
   77     -1.15199    0.00000
   78     -0.89940    0.00000
   79     -0.86828    0.00000
   80     -0.49525    0.00000
   81     -0.44359    0.00000
   82     -0.28869    0.00000
   83     -0.00812    0.00000
   84      0.16580    0.00000
   85      0.22082    0.00000
   86      0.38023    0.00000
   87      0.48133    0.00000
   88      0.61374    0.00000
   89      0.67328    0.00000
   90      0.74114    0.00000
   91      0.80321    0.00000
   92      0.86583    0.00000
   93      0.87229    0.00000

Fermi level: -3.11137

Gap: 3.112 eV
Transition (v -> c):
  (s=0, k=0, n=74, [0.00, 0.00, 0.00]) -> (s=0, k=0, n=75, [0.00, 0.00, 0.00])
