112
Lattice="34.4872 0.0 0.0 0.0 18.849899999999998 0.0 0.0 0.0 15.5589" Properties=species:S:1:pos:R:3:forces:R:3:magmoms:R:1 energy=-675.2220269640294 dipole="0.11158854888823183 -0.9988189970175673 -0.6704329685945739" magmom=0.0 free_energy=-675.2220269640294 pbc="F F F"
H       16.86852597       8.66326642      11.34006081       0.01080562       0.00554810       0.00273567       0.00000000
H       15.55842394       8.58427369       7.23462141       0.00523639       0.01036452       0.01689066       0.00000000
H       19.14449882       9.26769387      10.59641952       0.00003711      -0.00969955      -0.00507267       0.00000000
H       17.82708276       9.17245823       6.49166644       0.00143928       0.01409223       0.02021210       0.00000000
H       15.51856069       6.66010884      11.18663363      -0.00359376      -0.01607179      -0.01221736       0.00000000
H       19.55287358      10.80476246       6.43276439       0.01432520      -0.00855936       0.01417335       0.00000000
H       13.36470860       5.49834756      11.64249496      -0.01236532      -0.00471516      -0.01188676       0.00000000
H       21.82904213      10.85485023       5.41351082      -0.00325533      -0.00628258       0.01081400       0.00000000
H       13.60867972       9.35327144       8.38978026       0.01697179      -0.02642582      -0.01004617       0.00000000
H       20.85355359       7.99985740       9.46082968       0.00884935      -0.00071446      -0.02771864       0.00000000
H        6.92689705      10.92055493       7.66313421       0.00335041      -0.00972571      -0.01620546       0.00000000
H       29.32947020       8.29598650       8.23857442       0.01811042       0.01241044       0.01173350       0.00000000
H       10.79325110       8.64047572       8.09888139       0.00332697      -0.00702351      -0.00342725       0.00000000
H       23.69057937       7.38869557       9.08564448      -0.00437300      -0.01822499      -0.01852383       0.00000000
H        7.53818420      14.87483667       9.06912180      -0.00054333       0.01051269      -0.00064302       0.00000000
H        8.83286052      13.93598987       9.90834885      -0.00701716      -0.01514574      -0.02186828       0.00000000
H        7.19625098      14.02904646      10.62581621      -0.00429981       0.00126618       0.00556242       0.00000000
H       30.41841706      10.43404058       4.87991818      -0.00158427       0.02965830      -0.01573835       0.00000000
H       28.77313799       9.92114942       4.37619715      -0.02610174      -0.00911143       0.02305561       0.00000000
H       30.17219215       8.79491403       4.17776234       0.01243711       0.00122648       0.01841767       0.00000000
H        4.10231054       7.98016395       8.54185465      -0.01018613       0.00836900       0.01242448       0.00000000
H        4.61805848       9.62713279       8.11336763       0.00778725       0.01241123       0.00447911       0.00000000
H        5.30283776       8.22738895       7.25016109       0.00320032       0.01261305      -0.01471588       0.00000000
H        5.33986012      10.06524808      10.62147963      -0.00498184       0.00528706      -0.01455475       0.00000000
H        4.67823021       8.44789844      10.95924632      -0.01540072      -0.01174994       0.01241932       0.00000000
H        6.35040497       8.85069819      11.43623705       0.01634878       0.00521214       0.00713980       0.00000000
H       27.00769239      12.57870628       9.39478939      -0.01904799      -0.00166972      -0.00570469       0.00000000
H       28.19937147      11.65598156      10.34076158       0.02390838       0.00689236       0.00982115       0.00000000
H       28.35732513      11.78329662       8.56079849       0.00965453      -0.00343313      -0.01346512       0.00000000
H       25.08547498       9.50047823      10.32566019      -0.00419353       0.00251437      -0.01661049       0.00000000
H       25.18304660      11.27084688      10.45003495      -0.00117678       0.00153121      -0.01856008       0.00000000
H       26.30642264      10.24417913      11.37714034       0.00453975      -0.00201973       0.00929770       0.00000000
H        6.34471767       7.43216677       9.39498244       0.00773476       0.00789432      -0.00408361       0.00000000
H       26.21729941      10.49283757       8.30136499      -0.00696712      -0.01960389      -0.01282482       0.00000000
H       10.96622754       3.96569185       7.00248322      -0.00424171      -0.00696194      -0.00434202       0.00000000
H       11.01218129       5.03132722       5.57643007      -0.00316388       0.00223862      -0.00439661       0.00000000
H       11.38868580       5.67990733       7.18960529       0.00382391       0.00821744       0.00721577       0.00000000
H       23.86329180       4.38526263       6.06230148       0.01274497      -0.02767641       0.00256225       0.00000000
H       23.32464414       5.48289595       7.35071938       0.00291927       0.00760988      -0.01547102       0.00000000
H       23.91370323       3.85262609       7.76019206       0.01068355      -0.00066117       0.00542292       0.00000000
H        7.96431933       6.77111846       5.76513670       0.02047350       0.00827101      -0.00547274       0.00000000
H        9.67872463       7.21269006       5.80161995      -0.01119763      -0.00629433       0.00990555       0.00000000
H       26.64221980       5.21626356       9.13655260       0.02743128       0.00402389      -0.00549504       0.00000000
H       24.96278370       5.70371906       9.30467487       0.00803381       0.00480187       0.00283336       0.00000000
H        7.71445687       4.95841104       8.34951767      -0.00221686       0.00871815       0.00566564       0.00000000
H        9.35482186       4.52938895       8.91321785       0.00871138      -0.01174708       0.00828642       0.00000000
H       26.81979298       6.35066383       5.85249170      -0.01281476       0.01991311      -0.01782977       0.00000000
H       25.09696355       6.52759868       5.43549516       0.00762260       0.01991118       0.01303186       0.00000000
H        8.10223734       9.19271469       9.69618905      -0.01751330       0.00956123       0.02081997       0.00000000
H       28.26611071       9.20704626      10.15673278       0.02418766       0.00084292       0.01208591       0.00000000
H        8.22427087       6.87977026       9.63885059       0.00064877       0.00157607      -0.01629455       0.00000000
H       26.44898886       8.48474481       6.77889871      -0.00664067       0.01480496       0.00140845       0.00000000
H        8.67078348       4.57971887       6.23574967      -0.00929803      -0.01248389      -0.01333813       0.00000000
H       26.19126744       4.42845049       6.96586814      -0.00049344      -0.00035611      -0.00469026       0.00000000
O        8.17504646      11.50494023      10.53803836      -0.00711876       0.01085127      -0.00952341       0.00000000
O       27.80724978      10.45673937       6.47622256       0.00350628       0.00113839       0.01680413       0.00000000
O        7.75295440       9.22666895       6.47865416      -0.01552403      -0.00450573       0.02101499       0.00000000
O       26.95605831       7.29832690      10.59765129      -0.00334043       0.01115345      -0.01387261       0.00000000
N       10.99478231       6.18349725      10.17838490      -0.00800026       0.01811867       0.00725405       0.00000000
N       23.93353396       9.22008594       6.44025323      -0.00738674       0.00537831       0.00663127       0.00000000
O        7.33829316      12.87056310       8.88670896       0.01454033       0.00075772      -0.02925903       0.00000000
O       29.53391174       8.99205157       6.09654962       0.01860191      -0.01768594      -0.00444289       0.00000000
C        7.60775502      11.65557831       9.45582280      -0.01552285       0.00274077      -0.00267972       0.00000000
C       28.57336312       9.58432023       6.87806223       0.01534940       0.01098298      -0.01099594       0.00000000
C        7.94419158       8.66963144       7.57525941      -0.00086638      -0.01384914      -0.00535813       0.00000000
C       26.90337598       7.81850044       9.47038666       0.00054982      -0.00643545      -0.01557163       0.00000000
C       17.07630649       8.76826074      10.27034564      -0.00126390       0.01916415       0.00618229       0.00000000
C       16.33516179       8.76671864       7.98440039      -0.00511898       0.00739143       0.00437500       0.00000000
C       18.35987897       9.10704361       9.84968848       0.01118729      -0.01604572       0.00266619       0.00000000
C       17.61781348       9.10024926       7.56377531      -0.00131476      -0.01522128       0.00300108       0.00000000
C       14.60616599       6.99626744      10.68520655       0.01131246       0.02219303      -0.00471731       0.00000000
C       20.35562626      10.20143335       6.86827294      -0.00454702      -0.01214842       0.01312248       0.00000000
C       16.03995720       8.56229090       9.34419093       0.01812190      -0.00982072      -0.00202794       0.00000000
C       18.67015167       9.24254384       8.48429596      -0.01487863       0.02048565       0.00114907       0.00000000
C       14.71055933       8.05005043       9.73887917       0.00628722       0.01275318      -0.01421366       0.00000000
C       20.05911251       9.40149637       8.00319022      -0.00516289      -0.00988467       0.00516030       0.00000000
C       13.41018548       6.33467809      10.93949568       0.01371418       0.00324843      -0.01954050       0.00000000
C       21.62060338      10.23964996       6.29352809      -0.00885970      -0.00055106       0.01505797       0.00000000
C       13.55975709       8.51198072       9.08771709      -0.00314699       0.00967664       0.02034663       0.00000000
C       21.07554553       8.64567598       8.60557565       0.00530152       0.00397250      -0.00555749       0.00000000
C       10.33602195       6.94427422       9.31501269       0.00850559      -0.00623602      -0.02077288       0.00000000
C       24.41884982       8.33365938       7.29665920       0.00199111       0.00641660       0.00470900       0.00000000
C       12.27088909       6.73456748      10.22607863       0.00208064       0.01137889       0.01162450       0.00000000
C       22.62753562       9.44262281       6.85714751      -0.01597334      -0.01293728      -0.00147611       0.00000000
C       12.36598764       7.84567293       9.35034673       0.00421963      -0.01374135      -0.01600616       0.00000000
C       22.33522986       8.67400069       8.01086024       0.00537040       0.00143547       0.01083307       0.00000000
N        7.11020500      10.67006155       8.64878917      -0.00870734      -0.00739693      -0.01976667       0.00000000
N       28.63234187       9.04665378       8.13585375      -0.01359549      -0.00495401      -0.00789505       0.00000000
N        8.61178931       7.47846207       7.63285378       0.01152336       0.00057670       0.00459921       0.00000000
N       26.27738725       7.16221431       8.44300186      -0.00119401      -0.00435034      -0.00936247       0.00000000
N       11.09651934       7.97640858       8.82208662      -0.00221698       0.01263426       0.00079652       0.00000000
N       23.50135424       7.97351800       8.26274806      -0.00173920       0.00005428      -0.02653093       0.00000000
C        7.75718003      13.98825032       9.67875434      -0.00841387       0.01421132       0.00048051       0.00000000
C       29.72628722       9.57961139       4.80440011       0.00243289       0.01196114       0.00402364       0.00000000
C        4.96809892       8.58893811       8.23552129       0.00411594      -0.00173057       0.00207618       0.00000000
C        5.58673353       8.99179138      10.65485410      -0.00941922       0.00243584       0.01994144       0.00000000
C       27.64175935      11.67769189       9.38791752       0.00872016       0.00436681       0.00094194       0.00000000
C       25.78339951      10.34803610      10.41132064      -0.01251482       0.00110803       0.01714734       0.00000000
C        6.07068944       8.49952533       9.29249471      -0.00094952       0.00411143       0.00639043       0.00000000
C       26.77613252      10.42369181       9.24778064      -0.02047937       0.00038456       0.00897092       0.00000000
C       10.73611619       4.98123231       6.64261131      -0.00114863       0.00291904      -0.00089712       0.00000000
C       24.07267429       4.71571933       7.09256212       0.01799955       0.01016580      -0.00088841       0.00000000
C        8.87436595       6.73319216       6.38695144      -0.00426667       0.00965031       0.02307817       0.00000000
C       25.84008071       5.77479594       8.63012342      -0.00009288      -0.00403309      -0.00185979       0.00000000
C        8.78006451       5.23851601       8.30100557       0.00329402      -0.00605753       0.00881906       0.00000000
C       25.80592552       6.44852690       6.27358901      -0.00493665       0.00404082       0.01370756       0.00000000
C        7.36945882       9.26480321       8.87348843       0.02559180      -0.01083061      -0.01881691       0.00000000
C       27.66194512       9.15385203       9.23277510      -0.00162722      -0.01596944       0.01417075       0.00000000
C        8.93399331       6.67749009       8.82130633       0.01314125       0.00443558      -0.00554412       0.00000000
C       25.78571720       7.70356156       7.17381967       0.00015305       0.00396945       0.00985113       0.00000000
C        9.25149575       5.30228232       6.83208250      -0.01526736      -0.00544601      -0.00028995       0.00000000
C       25.50062367       5.25218181       7.21127704      -0.00186135       0.00906058      -0.00667229       0.00000000
