
  ___ ___ ___ _ _ _  
 |   |   |_  | | | | 
 | | | | | . | | | | 
 |__ |  _|___|_____|  21.6.0
 |___|_|             

User:   hanguo02@comput118.ghddi.org
Date:   Thu Jul  1 16:51:12 2021
Arch:   x86_64
Pid:    161476
Python: 3.6.8
gpaw:   /home/hanguo02/.local/lib/python3.6/site-packages/gpaw
_gpaw:  /home/hanguo02/.local/lib/python3.6/site-packages/
        _gpaw.cpython-36m-x86_64-linux-gnu.so
ase:    /home/hanguo02/.local/lib/python3.6/site-packages/ase (version 3.22.0)
numpy:  /usr/lib64/python3.6/site-packages/numpy (version 1.16.2)
scipy:  /usr/lib64/python3.6/site-packages/scipy (version 1.2.1)
libxc:  4.2.0
units:  Angstrom and eV
cores: 2
OpenMP: False
OMP_NUM_THREADS: 1

Input parameters:
  mode: {ecut: 400.0,
         gammacentered: False,
         name: pw}
  xc: PBE

System changes: positions, numbers, cell, pbc, initial_charges, initial_magmoms 

Initialize ...

H-setup:
  name: Hydrogen
  id: d65de229564ff8ea4db303e23b6d1ecf
  Z: 1.0
  valence: 1
  core: 0
  charge: 0.0
  file: /home/hanguo02/Software/GPAW/gpaw-setups-0.9.20000/H.PBE.gz
  compensation charges: gauss, rc=0.15, lmax=2
  cutoffs: 0.85(filt), 0.53(core),
  valence states:
                energy  radius
    1s(1.00)    -6.494   0.476
    *s          20.717   0.476
    *p           0.000   0.476

  Using partial waves for H as LCAO basis

C-setup:
  name: Carbon
  id: 4aa54d4b901d75f77cc0ea3eec22967b
  Z: 6.0
  valence: 4
  core: 2
  charge: 0.0
  file: /home/hanguo02/Software/GPAW/gpaw-setups-0.9.20000/C.PBE.gz
  compensation charges: gauss, rc=0.20, lmax=2
  cutoffs: 1.14(filt), 1.14(core),
  valence states:
                energy  radius
    2s(2.00)   -13.751   0.635
    2p(2.00)    -5.284   0.635
    *s          13.461   0.635
    *p          21.927   0.635
    *d           0.000   0.635

  Using partial waves for C as LCAO basis

O-setup:
  name: Oxygen
  id: 32ecd46bf208036f09c70b0ec9a88b78
  Z: 8.0
  valence: 6
  core: 2
  charge: 0.0
  file: /home/hanguo02/Software/GPAW/gpaw-setups-0.9.20000/O.PBE.gz
  compensation charges: gauss, rc=0.21, lmax=2
  cutoffs: 1.17(filt), 0.83(core),
  valence states:
                energy  radius
    2s(2.00)   -23.961   0.688
    2p(4.00)    -9.029   0.598
    *s           3.251   0.688
    *p          18.182   0.598
    *d           0.000   0.619

  Using partial waves for O as LCAO basis

Reference energy: -4171.049506

Spin-paired calculation

Convergence criteria:
  Maximum total energy change: 0.0005 eV / electron
  Maximum integral of absolute density change: 0.0001 electrons
  Maximum integral of absolute eigenstate change: 4e-08 eV^2
  Maximum number of iterations: 333

Symmetries present (total): 1

  ( 1  0  0)
  ( 0  1  0)
  ( 0  0  1)

1 k-point (Gamma)
1 k-point in the irreducible part of the Brillouin zone
       k-points in crystal coordinates                weights
   0:     0.00000000    0.00000000    0.00000000          1/1

Wave functions: Plane wave expansion
  Cutoff energy: 400.000 eV
  Number of coefficients: 56649 (reduced to 28325)
  Pulay-stress correction: 0.000000 eV/Ang^3 (de/decut=0.000000)
  Using Numpy's FFT
  ScaLapack parameters: grid=1x1, blocksize=None
  Wavefunction extrapolation:
    Improved wavefunction reuse through dual PAW basis 

Occupation numbers: width=0.000 eV 

Eigensolver
   Davidson(niter=2) 

Densities:
  Coarse grid: 70*70*70 grid
  Fine grid: 140*140*140 grid
  Total Charge: 0.000000 

Density mixing:
  Method: separate
  Backend: pulay
  Linear mixing parameter: 0.05
  Mixing with 5 old densities
  Damping of long wave oscillations: 50 

Hamiltonian:
  XC and Coulomb potentials evaluated on a 140*140*140 grid
  Using the PBE Exchange-Correlation functional
 

XC parameters: PBE with 2 nearest neighbor stencil

Memory estimate:
  Process memory now: 196.56 MiB
  Calculator: 141.07 MiB
    Density: 92.29 MiB
      Arrays: 34.02 MiB
      Localized functions: 45.19 MiB
      Mixer: 13.08 MiB
    Hamiltonian: 23.46 MiB
      Arrays: 22.24 MiB
      XC: 0.00 MiB
      Poisson: 0.00 MiB
      vbar: 1.22 MiB
    Wavefunctions: 25.32 MiB
      Arrays psit_nG: 6.92 MiB
      Eigensolver: 9.10 MiB
      Projections: 0.00 MiB
      Projectors: 2.38 MiB
      PW-descriptor: 6.92 MiB

Total number of cores used: 2
Domain decomposition: 2 x 1 x 1

Number of atoms: 9
Number of atomic orbitals: 18
Number of bands in calculation: 16
Number of valence electrons: 20
Bands to converge: occupied

... initialized

Initializing position-dependent things.

Density initialized from atomic densities
Creating initial wave functions:
  16 bands from LCAO basis set

          .------------------------------------.  
         /|                                    |  
        / |                                    |  
       /  |                                    |  
      /   |                                    |  
     /    |                                    |  
    /     |                                    |  
   /      |                                    |  
  /       |                                    |  
 *        |                                    |  
 |        |                                    |  
 |        |                                    |  
 |        |           H     H                  |  
 |        |           C     O                  |  
 |        |         H    CH                    |  
 |        |              H                     |  
 |        |                                    |  
 |        |                                    |  
 |        .------------------------------------.  
 |       /                                    /   
 |      /                                    /    
 |     /                                    /     
 |    /                                    /      
 |   /                                    /       
 |  /                                    /        
 | /                                    /         
 |/                                    /          
 *------------------------------------*           

Positions:
   0 H      8.110000    6.564700    6.000000    ( 0.0000,  0.0000,  0.0000)
   1 H      9.078000    8.151200    8.152600    ( 0.0000,  0.0000,  0.0000)
   2 H      8.437200    6.000000    7.650100    ( 0.0000,  0.0000,  0.0000)
   3 C      8.119100    6.860100    7.053200    ( 0.0000,  0.0000,  0.0000)
   4 O      9.070300    7.902500    7.212600    ( 0.0000,  0.0000,  0.0000)
   5 H      6.447500    8.217100    6.896700    ( 0.0000,  0.0000,  0.0000)
   6 H      6.000000    6.554200    7.348400    ( 0.0000,  0.0000,  0.0000)
   7 H      6.755400    7.646600    8.532100    ( 0.0000,  0.0000,  0.0000)
   8 C      6.747900    7.341000    7.480700    ( 0.0000,  0.0000,  0.0000)

Unit cell:
           periodic     x           y           z      points  spacing
  1. axis:    no    15.078000    0.000000    0.000000    70     0.2154
  2. axis:    no     0.000000   14.217100    0.000000    70     0.2031
  3. axis:    no     0.000000    0.000000   14.532100    70     0.2076

  Lengths:  15.078000  14.217100  14.532100
  Angles:   90.000000  90.000000  90.000000

Effective grid spacing dv^(1/3) = 0.2086

                     log10-error:    total        iterations:
           time      wfs    density  energy       poisson
iter:   1  16:51:27                 -49.318803           
iter:   2  16:51:33  -1.05  -0.64   -48.616734           
iter:   3  16:51:40  -0.58  -0.67   -45.245447           
iter:   4  16:51:46  -2.22  -1.02   -45.270152           
iter:   5  16:51:53  -1.11  -1.02   -45.446226           
iter:   6  16:51:59  -1.15  -1.21   -44.933064           
iter:   7  16:52:05  -2.61  -1.82   -44.914649           
iter:   8  16:52:13  -2.58  -1.88   -44.909889           
iter:   9  16:52:19  -3.39  -2.38   -44.910023           
iter:  10  16:52:26  -2.68  -2.32   -44.915739           
iter:  11  16:52:32  -2.99  -2.18   -44.908739           
iter:  12  16:52:39  -3.95  -2.91   -44.908760           
iter:  13  16:52:46  -5.07  -2.98   -44.908747           
iter:  14  16:52:52  -5.90  -3.06   -44.908743           
iter:  15  16:52:59  -4.72  -3.12   -44.908804           
iter:  16  16:53:05  -4.92  -3.07   -44.908742           
iter:  17  16:53:11  -6.61  -3.21   -44.908742           
iter:  18  16:53:17  -5.07  -3.26   -44.908783           
iter:  19  16:53:23  -5.14  -3.37   -44.908750           
iter:  20  16:53:30  -6.51  -3.64   -44.908750           
iter:  21  16:53:35  -6.46  -3.69   -44.908751           
iter:  22  16:53:42  -5.87  -3.87   -44.908752           
iter:  23  16:53:49  -6.38  -3.92   -44.908750           
iter:  24  16:53:55  -7.24  -4.24   -44.908750           
iter:  25  16:54:02  -7.18  -4.27   -44.908749           
iter:  26  16:54:09  -7.97  -4.37   -44.908749           

Converged after 26 iterations.

Dipole moment: (-0.206985, -0.129548, 0.228956) |e|*Ang

Energy contributions relative to reference atoms: (reference = -4171.049506)

Kinetic:        +36.786285
Potential:      -39.779518
External:        +0.000000
XC:             -41.818007
Entropy (-ST):   +0.000000
Local:           -0.097510
--------------------------
Free energy:    -44.908749
Extrapolated:   -44.908749

 Band  Eigenvalues  Occupancy
    0    -25.61002    2.00000
    1    -18.41298    2.00000
    2    -15.28825    2.00000
    3    -12.25262    2.00000
    4    -11.06584    2.00000
    5    -10.40904    2.00000
    6     -9.15526    2.00000
    7     -8.83158    2.00000
    8     -7.60861    2.00000
    9     -6.07052    2.00000
   10     -0.61835    0.00000
   11     -0.03586    0.00000
   12      0.20001    0.00000
   13      0.20654    0.00000
   14      0.36328    0.00000
   15      0.51390    0.00000

Fermi level: -3.34443

Gap: 5.452 eV
Transition (v -> c):
  (s=0, k=0, n=9, [0.00, 0.00, 0.00]) -> (s=0, k=0, n=10, [0.00, 0.00, 0.00])

Forces in eV/Ang:
  0 H     0.18048    0.03654   -0.27290
  1 H    -0.01860    0.10323    0.48477
  2 H    -0.02311   -0.52040    0.13131
  3 C    -0.24058    0.51142    0.51804
  4 O     0.35476    0.12161   -0.77271
  5 H    -0.06163    0.13569   -0.20022
  6 H    -0.29637   -0.18738    0.02823
  7 H    -0.03093   -0.02807    0.32123
  8 C     0.01850   -0.15011   -0.15580

System changes: positions 

Initializing position-dependent things.

Density initialized from wave functions
          .------------------------------------.  
         /|                                    |  
        / |                                    |  
       /  |                                    |  
      /   |                                    |  
     /    |                                    |  
    /     |                                    |  
   /      |                                    |  
  /       |                                    |  
 *        |                                    |  
 |        |                                    |  
 |        |                                    |  
 |        |           H     H                  |  
 |        |           C     O                  |  
 |        |         H    H                     |  
 |        |              H                     |  
 |        |                                    |  
 |        |                                    |  
 |        .------------------------------------.  
 |       /                                    /   
 |      /                                    /    
 |     /                                    /     
 |    /                                    /      
 |   /                                    /       
 |  /                                    /        
 | /                                    /         
 |/                                    /          
 *------------------------------------*           

Positions:
   0 H      8.112578    6.565222    5.996101    ( 0.0000,  0.0000,  0.0000)
   1 H      9.077734    8.152675    8.159525    ( 0.0000,  0.0000,  0.0000)
   2 H      8.436870    5.992566    7.651976    ( 0.0000,  0.0000,  0.0000)
   3 C      8.115663    6.867406    7.060601    ( 0.0000,  0.0000,  0.0000)
   4 O      9.075368    7.904237    7.201561    ( 0.0000,  0.0000,  0.0000)
   5 H      6.446620    8.219038    6.893840    ( 0.0000,  0.0000,  0.0000)
   6 H      5.995766    6.551523    7.348803    ( 0.0000,  0.0000,  0.0000)
   7 H      6.754958    7.646199    8.536689    ( 0.0000,  0.0000,  0.0000)
   8 C      6.748164    7.338856    7.478474    ( 0.0000,  0.0000,  0.0000)

Unit cell:
           periodic     x           y           z      points  spacing
  1. axis:    no    15.078000    0.000000    0.000000    70     0.2154
  2. axis:    no     0.000000   14.217100    0.000000    70     0.2031
  3. axis:    no     0.000000    0.000000   14.532100    70     0.2076

  Lengths:  15.078000  14.217100  14.532100
  Angles:   90.000000  90.000000  90.000000

Effective grid spacing dv^(1/3) = 0.2086

                     log10-error:    total        iterations:
           time      wfs    density  energy       poisson
iter:   1  16:54:19  -2.50          -44.929416           
iter:   2  16:54:26  -3.87  -2.30   -44.928856           
iter:   3  16:54:32  -3.09  -2.31   -44.925903           
iter:   4  16:54:39  -4.88  -2.71   -44.925715           
iter:   5  16:54:46  -4.41  -2.75   -44.926151           
iter:   6  16:54:52  -4.01  -2.59   -44.925526           
iter:   7  16:54:58  -5.11  -3.36   -44.925568           
iter:   8  16:55:05  -5.23  -3.17   -44.925540           
iter:   9  16:55:11  -5.86  -3.48   -44.925531           
iter:  10  16:55:18  -6.11  -3.79   -44.925534           
iter:  11  16:55:24  -5.85  -3.67   -44.925532           
iter:  12  16:55:31  -6.66  -3.87   -44.925530           
iter:  13  16:55:37  -7.03  -4.30   -44.925530           
iter:  14  16:55:44  -7.75  -4.52   -44.925530           

Converged after 14 iterations.

Dipole moment: (-0.210369, -0.126006, 0.233378) |e|*Ang

Energy contributions relative to reference atoms: (reference = -4171.049506)

Kinetic:        +35.164027
Potential:      -38.635495
External:        +0.000000
XC:             -41.357454
Entropy (-ST):   +0.000000
Local:           -0.096608
--------------------------
Free energy:    -44.925530
Extrapolated:   -44.925530

 Band  Eigenvalues  Occupancy
    0    -25.56352    2.00000
    1    -18.41713    2.00000
    2    -15.19989    2.00000
    3    -12.21194    2.00000
    4    -11.01275    2.00000
    5    -10.44312    2.00000
    6     -9.14048    2.00000
    7     -8.80476    2.00000
    8     -7.61550    2.00000
    9     -6.08996    2.00000
   10     -0.64375    0.00000
   11     -0.05530    0.00000
   12      0.19315    0.00000
   13      0.20366    0.00000
   14      0.35532    0.00000
   15      0.51236    0.00000

Fermi level: -3.36685

Gap: 5.446 eV
Transition (v -> c):
  (s=0, k=0, n=9, [0.00, 0.00, 0.00]) -> (s=0, k=0, n=10, [0.00, 0.00, 0.00])

Forces in eV/Ang:
  0 H     0.13204    0.11458    0.09010
  1 H     0.04405   -0.01546   -0.26551
  2 H    -0.08966   -0.24266    0.02505
  3 C     0.05561   -0.03387   -0.03730
  4 O     0.21163    0.27072    0.15016
  5 H    -0.04094    0.03651   -0.12527
  6 H    -0.18894   -0.12292    0.02444
  7 H    -0.06198   -0.06766    0.11881
  8 C    -0.19447    0.08069    0.09335

System changes: positions 

Initializing position-dependent things.

Density initialized from wave functions
          .------------------------------------.  
         /|                                    |  
        / |                                    |  
       /  |                                    |  
      /   |                                    |  
     /    |                                    |  
    /     |                                    |  
   /      |                                    |  
  /       |                                    |  
 *        |                                    |  
 |        |                                    |  
 |        |                                    |  
 |        |           H     H                  |  
 |        |           C     O                  |  
 |        |         H    H                     |  
 |        |              H                     |  
 |        |                                    |  
 |        |                                    |  
 |        .------------------------------------.  
 |       /                                    /   
 |      /                                    /    
 |     /                                    /     
 |    /                                    /      
 |   /                                    /       
 |  /                                    /        
 | /                                    /         
 |/                                    /          
 *------------------------------------*           

Positions:
   0 H      8.115081    6.567023    5.996586    ( 0.0000,  0.0000,  0.0000)
   1 H      9.078326    8.152766    8.157110    ( 0.0000,  0.0000,  0.0000)
   2 H      8.435478    5.987384    7.652750    ( 0.0000,  0.0000,  0.0000)
   3 C      8.115740    6.868486    7.061650    ( 0.0000,  0.0000,  0.0000)
   4 O      9.079581    7.908601    7.201388    ( 0.0000,  0.0000,  0.0000)
   5 H      6.445826    8.219995    6.891376    ( 0.0000,  0.0000,  0.0000)
   6 H      5.992068    6.549134    7.349251    ( 0.0000,  0.0000,  0.0000)
   7 H      6.753950    7.645116    8.539431    ( 0.0000,  0.0000,  0.0000)
   8 C      6.745356    7.339581    7.479369    ( 0.0000,  0.0000,  0.0000)

Unit cell:
           periodic     x           y           z      points  spacing
  1. axis:    no    15.078000    0.000000    0.000000    70     0.2154
  2. axis:    no     0.000000   14.217100    0.000000    70     0.2031
  3. axis:    no     0.000000    0.000000   14.532100    70     0.2076

  Lengths:  15.078000  14.217100  14.532100
  Angles:   90.000000  90.000000  90.000000

Effective grid spacing dv^(1/3) = 0.2086

                     log10-error:    total        iterations:
           time      wfs    density  energy       poisson
iter:   1  16:55:54  -3.31          -44.931437           
iter:   2  16:56:01  -4.70  -2.75   -44.931374           
iter:   3  16:56:08  -3.82  -2.76   -44.931057           
iter:   4  16:56:14  -5.54  -3.18   -44.931016           
iter:   5  16:56:20  -4.86  -3.20   -44.931105           
iter:   6  16:56:26  -4.63  -3.04   -44.931000           
iter:   7  16:56:32  -6.30  -3.77   -44.930998           
iter:   8  16:56:40  -6.07  -3.79   -44.931000           
iter:   9  16:56:46  -5.49  -3.80   -44.931004           
iter:  10  16:56:53  -6.99  -3.74   -44.931003           
iter:  11  16:56:59  -5.86  -3.73   -44.930998           
iter:  12  16:57:05  -7.38  -4.67   -44.930998           
iter:  13  16:57:11  -7.75  -4.60   -44.930998           

Converged after 13 iterations.

Dipole moment: (-0.213191, -0.128164, 0.232627) |e|*Ang

Energy contributions relative to reference atoms: (reference = -4171.049506)

Kinetic:        +34.534616
Potential:      -38.170316
External:        +0.000000
XC:             -41.198642
Entropy (-ST):   +0.000000
Local:           -0.096656
--------------------------
Free energy:    -44.930998
Extrapolated:   -44.930998

 Band  Eigenvalues  Occupancy
    0    -25.54590    2.00000
    1    -18.41112    2.00000
    2    -15.18709    2.00000
    3    -12.19156    2.00000
    4    -10.99447    2.00000
    5    -10.42923    2.00000
    6     -9.13228    2.00000
    7     -8.80530    2.00000
    8     -7.63628    2.00000
    9     -6.10227    2.00000
   10     -0.64203    0.00000
   11     -0.05078    0.00000
   12      0.19064    0.00000
   13      0.20231    0.00000
   14      0.35343    0.00000
   15      0.51197    0.00000

Fermi level: -3.37215

Gap: 5.460 eV
Transition (v -> c):
  (s=0, k=0, n=9, [0.00, 0.00, 0.00]) -> (s=0, k=0, n=10, [0.00, 0.00, 0.00])

Forces in eV/Ang:
  0 H     0.11996    0.12019    0.10506
  1 H     0.06236    0.03921   -0.12337
  2 H    -0.10293   -0.10559   -0.03107
  3 C     0.12545   -0.05176   -0.01229
  4 O     0.05589    0.07973    0.04402
  5 H    -0.04142    0.00139   -0.08118
  6 H    -0.11897   -0.05305    0.03110
  7 H    -0.07606   -0.06496    0.07028
  8 C    -0.16185    0.05101    0.07495

System changes: positions 

Initializing position-dependent things.

Density initialized from wave functions
          .------------------------------------.  
         /|                                    |  
        / |                                    |  
       /  |                                    |  
      /   |                                    |  
     /    |                                    |  
    /     |                                    |  
   /      |                                    |  
  /       |                                    |  
 *        |                                    |  
 |        |                                    |  
 |        |                                    |  
 |        |           H     H                  |  
 |        |           C     O                  |  
 |        |         H    H                     |  
 |        |              H                     |  
 |        |                                    |  
 |        |                                    |  
 |        .------------------------------------.  
 |       /                                    /   
 |      /                                    /    
 |     /                                    /     
 |    /                                    /      
 |   /                                    /       
 |  /                                    /        
 | /                                    /         
 |/                                    /          
 *------------------------------------*           

Positions:
   0 H      8.120422    6.571570    5.999029    ( 0.0000,  0.0000,  0.0000)
   1 H      9.080409    8.154364    8.154052    ( 0.0000,  0.0000,  0.0000)
   2 H      8.431675    5.980160    7.652590    ( 0.0000,  0.0000,  0.0000)
   3 C      8.118747    6.869165    7.063544    ( 0.0000,  0.0000,  0.0000)
   4 O      9.084299    7.913286    7.199928    ( 0.0000,  0.0000,  0.0000)
   5 H      6.444014    8.220917    6.887164    ( 0.0000,  0.0000,  0.0000)
   6 H      5.985847    6.545856    7.350486    ( 0.0000,  0.0000,  0.0000)
   7 H      6.751099    7.642583    8.543855    ( 0.0000,  0.0000,  0.0000)
   8 C      6.739313    7.340909    7.481478    ( 0.0000,  0.0000,  0.0000)

Unit cell:
           periodic     x           y           z      points  spacing
  1. axis:    no    15.078000    0.000000    0.000000    70     0.2154
  2. axis:    no     0.000000   14.217100    0.000000    70     0.2031
  3. axis:    no     0.000000    0.000000   14.532100    70     0.2076

  Lengths:  15.078000  14.217100  14.532100
  Angles:   90.000000  90.000000  90.000000

Effective grid spacing dv^(1/3) = 0.2086

                     log10-error:    total        iterations:
           time      wfs    density  energy       poisson
iter:   1  16:57:22  -2.97          -44.936573           
iter:   2  16:57:28  -4.37  -2.52   -44.936411           
iter:   3  16:57:34  -3.43  -2.53   -44.935654           
iter:   4  16:57:41  -4.94  -2.95   -44.935530           
iter:   5  16:57:47  -4.25  -2.96   -44.935858           
iter:   6  16:57:54  -4.11  -2.77   -44.935493           
iter:   7  16:58:00  -5.55  -3.57   -44.935492           
iter:   8  16:58:07  -5.69  -3.52   -44.935485           
iter:   9  16:58:14  -5.92  -3.91   -44.935490           
iter:  10  16:58:20  -5.63  -3.70   -44.935486           
iter:  11  16:58:27  -6.93  -4.03   -44.935485           
iter:  12  16:58:32  -7.06  -4.41   -44.935485           
iter:  13  16:58:39  -8.12  -4.74   -44.935485           

Converged after 13 iterations.

Dipole moment: (-0.213363, -0.129852, 0.232198) |e|*Ang

Energy contributions relative to reference atoms: (reference = -4171.049506)

Kinetic:        +33.729218
Potential:      -37.572341
External:        +0.000000
XC:             -40.996565
Entropy (-ST):   +0.000000
Local:           -0.095796
--------------------------
Free energy:    -44.935485
Extrapolated:   -44.935485

 Band  Eigenvalues  Occupancy
    0    -25.53649    2.00000
    1    -18.37584    2.00000
    2    -15.18092    2.00000
    3    -12.17636    2.00000
    4    -10.96462    2.00000
    5    -10.40091    2.00000
    6     -9.11274    2.00000
    7     -8.81689    2.00000
    8     -7.66354    2.00000
    9     -6.11569    2.00000
   10     -0.64186    0.00000
   11     -0.04690    0.00000
   12      0.18931    0.00000
   13      0.20101    0.00000
   14      0.35216    0.00000
   15      0.51164    0.00000

Fermi level: -3.37877

Gap: 5.474 eV
Transition (v -> c):
  (s=0, k=0, n=9, [0.00, 0.00, 0.00]) -> (s=0, k=0, n=10, [0.00, 0.00, 0.00])

Forces in eV/Ang:
  0 H     0.09690    0.09779    0.06586
  1 H     0.08358    0.08714   -0.01825
  2 H    -0.08018    0.01956   -0.05946
  3 C     0.01844   -0.00730    0.03761
  4 O    -0.07793   -0.09691    0.00463
  5 H    -0.04338   -0.04477   -0.01210
  6 H    -0.03298    0.03233    0.03672
  7 H    -0.09626   -0.04910    0.01566
  8 C    -0.01242   -0.02990    0.00371

System changes: positions 

Initializing position-dependent things.

Density initialized from wave functions
          .------------------------------------.  
         /|                                    |  
        / |                                    |  
       /  |                                    |  
      /   |                                    |  
     /    |                                    |  
    /     |                                    |  
   /      |                                    |  
  /       |                                    |  
 *        |                                    |  
 |        |                                    |  
 |        |                                    |  
 |        |           H     H                  |  
 |        |           C     O                  |  
 |        |         H    H                     |  
 |        |              H                     |  
 |        |                                    |  
 |        |                                    |  
 |        .------------------------------------.  
 |       /                                    /   
 |      /                                    /    
 |     /                                    /     
 |    /                                    /      
 |   /                                    /       
 |  /                                    /        
 | /                                    /         
 |/                                    /          
 *------------------------------------*           

Positions:
   0 H      8.124085    6.574872    6.000889    ( 0.0000,  0.0000,  0.0000)
   1 H      9.082577    8.156371    8.152448    ( 0.0000,  0.0000,  0.0000)
   2 H      8.428975    5.977497    7.651671    ( 0.0000,  0.0000,  0.0000)
   3 C      8.119743    6.869524    7.064997    ( 0.0000,  0.0000,  0.0000)
   4 O      9.085050    7.913691    7.199564    ( 0.0000,  0.0000,  0.0000)
   5 H      6.442590    8.220557    6.885334    ( 0.0000,  0.0000,  0.0000)
   6 H      5.982848    6.545079    7.351562    ( 0.0000,  0.0000,  0.0000)
   7 H      6.748411    7.640821    8.545885    ( 0.0000,  0.0000,  0.0000)
   8 C      6.737008    7.340822    7.482231    ( 0.0000,  0.0000,  0.0000)

Unit cell:
           periodic     x           y           z      points  spacing
  1. axis:    no    15.078000    0.000000    0.000000    70     0.2154
  2. axis:    no     0.000000   14.217100    0.000000    70     0.2031
  3. axis:    no     0.000000    0.000000   14.532100    70     0.2076

  Lengths:  15.078000  14.217100  14.532100
  Angles:   90.000000  90.000000  90.000000

Effective grid spacing dv^(1/3) = 0.2086

                     log10-error:    total        iterations:
           time      wfs    density  energy       poisson
iter:   1  16:58:49  -3.69          -44.937289           
iter:   2  16:58:55  -5.13  -2.87   -44.937265           
iter:   3  16:59:02  -4.14  -2.88   -44.937162           
iter:   4  16:59:08  -5.74  -3.22   -44.937119           
iter:   5  16:59:14  -5.32  -3.29   -44.937177           
iter:   6  16:59:20  -4.85  -3.11   -44.937103           
iter:   7  16:59:26  -6.32  -3.89   -44.937104           
iter:   8  16:59:33  -6.49  -3.85   -44.937103           
iter:   9  16:59:40  -6.81  -4.19   -44.937103           
iter:  10  16:59:47  -7.10  -4.24   -44.937103           
iter:  11  16:59:53  -7.68  -4.37   -44.937103           

Converged after 11 iterations.

Dipole moment: (-0.212140, -0.129307, 0.232261) |e|*Ang

Energy contributions relative to reference atoms: (reference = -4171.049506)

Kinetic:        +33.583283
Potential:      -37.464051
External:        +0.000000
XC:             -40.961424
Entropy (-ST):   +0.000000
Local:           -0.094911
--------------------------
Free energy:    -44.937103
Extrapolated:   -44.937103

 Band  Eigenvalues  Occupancy
    0    -25.54336    2.00000
    1    -18.36271    2.00000
    2    -15.18569    2.00000
    3    -12.17906    2.00000
    4    -10.95453    2.00000
    5    -10.39602    2.00000
    6     -9.10264    2.00000
    7     -8.81910    2.00000
    8     -7.66883    2.00000
    9     -6.12056    2.00000
   10     -0.64097    0.00000
   11     -0.04535    0.00000
   12      0.18982    0.00000
   13      0.20055    0.00000
   14      0.35189    0.00000
   15      0.51147    0.00000

Fermi level: -3.38076

Gap: 5.480 eV
Transition (v -> c):
  (s=0, k=0, n=9, [0.00, 0.00, 0.00]) -> (s=0, k=0, n=10, [0.00, 0.00, 0.00])

Forces in eV/Ang:
  0 H     0.07666    0.07694    0.03178
  1 H     0.08377    0.09680    0.01960
  2 H    -0.05993    0.03931   -0.04827
  3 C    -0.04318    0.00505    0.04411
  4 O    -0.08632   -0.11632    0.00090
  5 H    -0.03957   -0.06456    0.01877
  6 H    -0.00455    0.04962    0.03221
  7 H    -0.09698   -0.04178   -0.01427
  8 C     0.02409   -0.03786   -0.01010

System changes: positions 

Initializing position-dependent things.

Density initialized from wave functions
          .------------------------------------.  
         /|                                    |  
        / |                                    |  
       /  |                                    |  
      /   |                                    |  
     /    |                                    |  
    /     |                                    |  
   /      |                                    |  
  /       |                                    |  
 *        |                                    |  
 |        |                                    |  
 |        |                                    |  
 |        |           H     H                  |  
 |        |           C     O                  |  
 |        |         H    H                     |  
 |        |              H                     |  
 |        |                                    |  
 |        |                                    |  
 |        .------------------------------------.  
 |       /                                    /   
 |      /                                    /    
 |     /                                    /     
 |    /                                    /      
 |   /                                    /       
 |  /                                    /        
 | /                                    /         
 |/                                    /          
 *------------------------------------*           

Positions:
   0 H      8.132843    6.582928    6.004981    ( 0.0000,  0.0000,  0.0000)
   1 H      9.088767    8.162483    8.149479    ( 0.0000,  0.0000,  0.0000)
   2 H      8.422517    5.973074    7.649021    ( 0.0000,  0.0000,  0.0000)
   3 C      8.119910    6.870265    7.068609    ( 0.0000,  0.0000,  0.0000)
   4 O      9.084888    7.912259    7.199531    ( 0.0000,  0.0000,  0.0000)
   5 H      6.438927    8.218151    6.882449    ( 0.0000,  0.0000,  0.0000)
   6 H      5.977004    6.544701    7.354346    ( 0.0000,  0.0000,  0.0000)
   7 H      6.740878    7.636432    8.549217    ( 0.0000,  0.0000,  0.0000)
   8 C      6.733176    7.339937    7.483535    ( 0.0000,  0.0000,  0.0000)

Unit cell:
           periodic     x           y           z      points  spacing
  1. axis:    no    15.078000    0.000000    0.000000    70     0.2154
  2. axis:    no     0.000000   14.217100    0.000000    70     0.2031
  3. axis:    no     0.000000    0.000000   14.532100    70     0.2076

  Lengths:  15.078000  14.217100  14.532100
  Angles:   90.000000  90.000000  90.000000

Effective grid spacing dv^(1/3) = 0.2086

                     log10-error:    total        iterations:
           time      wfs    density  energy       poisson
iter:   1  17:00:04  -3.01          -44.940567           
iter:   2  17:00:10  -4.40  -2.56   -44.940528           
iter:   3  17:00:17  -3.96  -2.57   -44.940066           
iter:   4  17:00:24  -4.89  -3.04   -44.940096           
iter:   5  17:00:31  -5.51  -3.06   -44.940040           
iter:   6  17:00:39  -5.21  -3.17   -44.940021           
iter:   7  17:00:44  -6.79  -3.61   -44.940021           
iter:   8  17:00:51  -6.01  -3.63   -44.940022           
iter:   9  17:00:58  -6.29  -3.86   -44.940021           
iter:  10  17:01:05  -7.07  -4.08   -44.940021           
iter:  11  17:01:10  -7.41  -4.04   -44.940021           

Converged after 11 iterations.

Dipole moment: (-0.209049, -0.126548, 0.232779) |e|*Ang

Energy contributions relative to reference atoms: (reference = -4171.049506)

Kinetic:        +33.594005
Potential:      -37.471471
External:        +0.000000
XC:             -40.967999
Entropy (-ST):   +0.000000
Local:           -0.094555
--------------------------
Free energy:    -44.940021
Extrapolated:   -44.940021

 Band  Eigenvalues  Occupancy
    0    -25.55851    2.00000
    1    -18.34945    2.00000
    2    -15.20394    2.00000
    3    -12.19103    2.00000
    4    -10.93964    2.00000
    5    -10.39869    2.00000
    6     -9.08674    2.00000
    7     -8.81790    2.00000
    8     -7.66875    2.00000
    9     -6.12675    2.00000
   10     -0.63828    0.00000
   11     -0.04304    0.00000
   12      0.19198    0.00000
   13      0.19996    0.00000
   14      0.35144    0.00000
   15      0.51103    0.00000

Fermi level: -3.38251

Gap: 5.488 eV
Transition (v -> c):
  (s=0, k=0, n=9, [0.00, 0.00, 0.00]) -> (s=0, k=0, n=10, [0.00, 0.00, 0.00])

Forces in eV/Ang:
  0 H     0.02088    0.02788   -0.03848
  1 H     0.07028    0.09335    0.06449
  2 H    -0.01969    0.04036   -0.00639
  3 C    -0.12175    0.01180    0.03456
  4 O    -0.04669   -0.08402    0.01449
  5 H    -0.03385   -0.07659    0.06046
  6 H     0.03132    0.05095    0.01357
  7 H    -0.08521   -0.02064   -0.05223
  8 C     0.03933   -0.03789   -0.01924

System changes: positions 

Initializing position-dependent things.

Density initialized from wave functions
          .------------------------------------.  
         /|                                    |  
        / |                                    |  
       /  |                                    |  
      /   |                                    |  
     /    |                                    |  
    /     |                                    |  
   /      |                                    |  
  /       |                                    |  
 *        |                                    |  
 |        |                                    |  
 |        |                                    |  
 |        |           H     H                  |  
 |        |           C     O                  |  
 |        |         H    H                     |  
 |        |              H                     |  
 |        |                                    |  
 |        |                                    |  
 |        .------------------------------------.  
 |       /                                    /   
 |      /                                    /    
 |     /                                    /     
 |    /                                    /      
 |   /                                    /       
 |  /                                    /        
 | /                                    /         
 |/                                    /          
 *------------------------------------*           

Positions:
   0 H      8.139269    6.589105    6.007285    ( 0.0000,  0.0000,  0.0000)
   1 H      9.094459    8.168436    8.148129    ( 0.0000,  0.0000,  0.0000)
   2 H      8.417595    5.970874    7.647033    ( 0.0000,  0.0000,  0.0000)
   3 C      8.117928    6.870649    7.071415    ( 0.0000,  0.0000,  0.0000)
   4 O      9.083902    7.909869    7.200426    ( 0.0000,  0.0000,  0.0000)
   5 H      6.435713    8.215001    6.881619    ( 0.0000,  0.0000,  0.0000)
   6 H      5.973570    6.545399    7.356522    ( 0.0000,  0.0000,  0.0000)
   7 H      6.733977    7.632976    8.550462    ( 0.0000,  0.0000,  0.0000)
   8 C      6.731031    7.338717    7.484238    ( 0.0000,  0.0000,  0.0000)

Unit cell:
           periodic     x           y           z      points  spacing
  1. axis:    no    15.078000    0.000000    0.000000    70     0.2154
  2. axis:    no     0.000000   14.217100    0.000000    70     0.2031
  3. axis:    no     0.000000    0.000000   14.532100    70     0.2076

  Lengths:  15.078000  14.217100  14.532100
  Angles:   90.000000  90.000000  90.000000

Effective grid spacing dv^(1/3) = 0.2086

                     log10-error:    total        iterations:
           time      wfs    density  energy       poisson
iter:   1  17:01:21  -3.19          -44.941900           
iter:   2  17:01:27  -4.57  -2.72   -44.941903           
iter:   3  17:01:33  -4.68  -2.72   -44.941706           
iter:   4  17:01:39  -5.28  -3.16   -44.941702           
iter:   5  17:01:47  -6.20  -3.35   -44.941695           
iter:   6  17:01:53  -6.28  -3.42   -44.941696           
iter:   7  17:02:00  -7.09  -3.68   -44.941695           
iter:   8  17:02:06  -6.36  -3.86   -44.941694           
iter:   9  17:02:12  -7.73  -4.38   -44.941694           

Converged after 9 iterations.

Dipole moment: (-0.207334, -0.123631, 0.233420) |e|*Ang

Energy contributions relative to reference atoms: (reference = -4171.049506)

Kinetic:        +33.791323
Potential:      -37.617211
External:        +0.000000
XC:             -41.021143
Entropy (-ST):   +0.000000
Local:           -0.094662
--------------------------
Free energy:    -44.941694
Extrapolated:   -44.941694

 Band  Eigenvalues  Occupancy
    0    -25.56174    2.00000
    1    -18.35173    2.00000
    2    -15.21972    2.00000
    3    -12.19913    2.00000
    4    -10.93211    2.00000
    5    -10.40832    2.00000
    6     -9.07942    2.00000
    7     -8.81037    2.00000
    8     -7.66088    2.00000
    9     -6.12927    2.00000
   10     -0.63563    0.00000
   11     -0.04239    0.00000
   12      0.19403    0.00000
   13      0.20009    0.00000
   14      0.35116    0.00000
   15      0.51069    0.00000

Fermi level: -3.38245

Gap: 5.494 eV
Transition (v -> c):
  (s=0, k=0, n=9, [0.00, 0.00, 0.00]) -> (s=0, k=0, n=10, [0.00, 0.00, 0.00])

Forces in eV/Ang:
  0 H    -0.02919   -0.00529   -0.06652
  1 H     0.04596    0.06824    0.06775
  2 H     0.00166    0.02058    0.02812
  3 C    -0.11128    0.00936    0.00708
  4 O    -0.00409   -0.02421    0.04146
  5 H    -0.03300   -0.05710    0.06681
  6 H     0.03294    0.02028   -0.00678
  7 H    -0.06493   -0.00205   -0.05564
  8 C     0.01601   -0.02635   -0.01128

System changes: positions 

Initializing position-dependent things.

Density initialized from wave functions
          .------------------------------------.  
         /|                                    |  
        / |                                    |  
       /  |                                    |  
      /   |                                    |  
     /    |                                    |  
    /     |                                    |  
   /      |                                    |  
  /       |                                    |  
 *        |                                    |  
 |        |                                    |  
 |        |                                    |  
 |        |           H      H                 |  
 |        |           C     O                  |  
 |        |         H    H                     |  
 |        |              H                     |  
 |        |                                    |  
 |        |                                    |  
 |        .------------------------------------.  
 |       /                                    /   
 |      /                                    /    
 |     /                                    /     
 |    /                                    /      
 |   /                                    /       
 |  /                                    /        
 | /                                    /         
 |/                                    /          
 *------------------------------------*           

Positions:
   0 H      8.141947    6.592267    6.007482    ( 0.0000,  0.0000,  0.0000)
   1 H      9.098368    8.172846    8.148466    ( 0.0000,  0.0000,  0.0000)
   2 H      8.414993    5.970593    7.646363    ( 0.0000,  0.0000,  0.0000)
   3 C      8.115127    6.870707    7.072709    ( 0.0000,  0.0000,  0.0000)
   4 O      9.082863    7.907862    7.202159    ( 0.0000,  0.0000,  0.0000)
   5 H      6.433381    8.212201    6.882582    ( 0.0000,  0.0000,  0.0000)
   6 H      5.972605    6.546300    7.357519    ( 0.0000,  0.0000,  0.0000)
   7 H      6.729086    7.631153    8.549885    ( 0.0000,  0.0000,  0.0000)
   8 C      6.730230    7.337560    7.484448    ( 0.0000,  0.0000,  0.0000)

Unit cell:
           periodic     x           y           z      points  spacing
  1. axis:    no    15.078000    0.000000    0.000000    70     0.2154
  2. axis:    no     0.000000   14.217100    0.000000    70     0.2031
  3. axis:    no     0.000000    0.000000   14.532100    70     0.2076

  Lengths:  15.078000  14.217100  14.532100
  Angles:   90.000000  90.000000  90.000000

Effective grid spacing dv^(1/3) = 0.2086

                     log10-error:    total        iterations:
           time      wfs    density  energy       poisson
iter:   1  17:02:22  -3.48          -44.942849           
iter:   2  17:02:29  -4.86  -2.88   -44.942836           
iter:   3  17:02:35  -4.62  -2.89   -44.942691           
iter:   4  17:02:41  -5.73  -3.22   -44.942689           
iter:   5  17:02:46  -5.13  -3.26   -44.942696           
iter:   6  17:02:53  -5.29  -3.40   -44.942676           
iter:   7  17:03:00  -6.26  -3.84   -44.942677           
iter:   8  17:03:06  -6.35  -3.81   -44.942675           
iter:   9  17:03:13  -8.07  -4.35   -44.942675           

Converged after 9 iterations.

Dipole moment: (-0.207580, -0.121879, 0.233830) |e|*Ang

Energy contributions relative to reference atoms: (reference = -4171.049506)

Kinetic:        +34.010911
Potential:      -37.778558
External:        +0.000000
XC:             -41.080254
Entropy (-ST):   +0.000000
Local:           -0.094774
--------------------------
Free energy:    -44.942675
Extrapolated:   -44.942675

 Band  Eigenvalues  Occupancy
    0    -25.55095    2.00000
    1    -18.36494    2.00000
    2    -15.22990    2.00000
    3    -12.20031    2.00000
    4    -10.93221    2.00000
    5    -10.41929    2.00000
    6     -9.08061    2.00000
    7     -8.80269    2.00000
    8     -7.65037    2.00000
    9     -6.12656    2.00000
   10     -0.63350    0.00000
   11     -0.04287    0.00000
   12      0.19508    0.00000
   13      0.20049    0.00000
   14      0.35099    0.00000
   15      0.51049    0.00000

Fermi level: -3.38003

Gap: 5.493 eV
Transition (v -> c):
  (s=0, k=0, n=9, [0.00, 0.00, 0.00]) -> (s=0, k=0, n=10, [0.00, 0.00, 0.00])

Forces in eV/Ang:
  0 H    -0.05471   -0.01425   -0.05556
  1 H     0.02064    0.03726    0.05153
  2 H     0.00303   -0.00017    0.04043
  3 C    -0.04190    0.00849   -0.00870
  4 O     0.01994    0.02369    0.05331
  5 H    -0.03764   -0.01921    0.04377
  6 H     0.00869   -0.02299   -0.02165
  7 H    -0.04567    0.00948   -0.02743
  8 C    -0.01254   -0.00821   -0.00258

System changes: positions 

Initializing position-dependent things.

Density initialized from wave functions
          .------------------------------------.  
         /|                                    |  
        / |                                    |  
       /  |                                    |  
      /   |                                    |  
     /    |                                    |  
    /     |                                    |  
   /      |                                    |  
  /       |                                    |  
 *        |                                    |  
 |        |                                    |  
 |        |                                    |  
 |        |           H      H                 |  
 |        |           C     O                  |  
 |        |         H    H                     |  
 |        |              H                     |  
 |        |                                    |  
 |        |                                    |  
 |        .------------------------------------.  
 |       /                                    /   
 |      /                                    /    
 |     /                                    /     
 |    /                                    /      
 |   /                                    /       
 |  /                                    /        
 | /                                    /         
 |/                                    /          
 *------------------------------------*           

Positions:
   0 H      8.141806    6.593253    6.006475    ( 0.0000,  0.0000,  0.0000)
   1 H      9.100464    8.175520    8.149770    ( 0.0000,  0.0000,  0.0000)
   2 H      8.413989    5.970926    7.646796    ( 0.0000,  0.0000,  0.0000)
   3 C      8.113157    6.870780    7.072980    ( 0.0000,  0.0000,  0.0000)
   4 O      9.082421    7.907101    7.204112    ( 0.0000,  0.0000,  0.0000)
   5 H      6.431630    8.210531    6.884069    ( 0.0000,  0.0000,  0.0000)
   6 H      5.972636    6.546399    7.357476    ( 0.0000,  0.0000,  0.0000)
   7 H      6.726073    7.630632    8.548884    ( 0.0000,  0.0000,  0.0000)
   8 C      6.729834    7.336831    7.484423    ( 0.0000,  0.0000,  0.0000)

Unit cell:
           periodic     x           y           z      points  spacing
  1. axis:    no    15.078000    0.000000    0.000000    70     0.2154
  2. axis:    no     0.000000   14.217100    0.000000    70     0.2031
  3. axis:    no     0.000000    0.000000   14.532100    70     0.2076

  Lengths:  15.078000  14.217100  14.532100
  Angles:   90.000000  90.000000  90.000000

Effective grid spacing dv^(1/3) = 0.2086

                     log10-error:    total        iterations:
           time      wfs    density  energy       poisson
iter:   1  17:03:24  -3.86          -44.943331           
iter:   2  17:03:30  -5.25  -3.04   -44.943316           
iter:   3  17:03:36  -4.70  -3.05   -44.943220           
iter:   4  17:03:41  -6.43  -3.41   -44.943219           
iter:   5  17:03:48  -5.68  -3.41   -44.943222           
iter:   6  17:03:54  -5.64  -3.49   -44.943211           
iter:   7  17:04:00  -7.06  -4.01   -44.943211           
iter:   8  17:04:07  -7.15  -4.12   -44.943211           
iter:   9  17:04:14  -7.69  -4.44   -44.943211           

Converged after 9 iterations.

Dipole moment: (-0.208310, -0.120888, 0.233954) |e|*Ang

Energy contributions relative to reference atoms: (reference = -4171.049506)

Kinetic:        +34.086836
Potential:      -37.832497
External:        +0.000000
XC:             -41.101545
Entropy (-ST):   +0.000000
Local:           -0.096006
--------------------------
Free energy:    -44.943211
Extrapolated:   -44.943211

 Band  Eigenvalues  Occupancy
    0    -25.53760    2.00000
    1    -18.37556    2.00000
    2    -15.23290    2.00000
    3    -12.19719    2.00000
    4    -10.93433    2.00000
    5    -10.42435    2.00000
    6     -9.08399    2.00000
    7     -8.79752    2.00000
    8     -7.64279    2.00000
    9     -6.12389    2.00000
   10     -0.63263    0.00000
   11     -0.04393    0.00000
   12      0.19512    0.00000
   13      0.20076    0.00000
   14      0.35077    0.00000
   15      0.51037    0.00000

Fermi level: -3.37826

Gap: 5.491 eV
Transition (v -> c):
  (s=0, k=0, n=9, [0.00, 0.00, 0.00]) -> (s=0, k=0, n=10, [0.00, 0.00, 0.00])

Forces in eV/Ang:
  0 H    -0.05788   -0.00678   -0.02172
  1 H     0.00137    0.01286    0.03721
  2 H    -0.00491   -0.00321    0.03205
  3 C     0.02333    0.00542   -0.01049
  4 O     0.02265    0.03775    0.04386
  5 H    -0.04340    0.01241    0.01622
  6 H    -0.00964   -0.04812   -0.02756
  7 H    -0.03371    0.01214    0.00188
  8 C    -0.03515   -0.00676    0.00428

System changes: positions 

Initializing position-dependent things.

Density initialized from wave functions
          .------------------------------------.  
         /|                                    |  
        / |                                    |  
       /  |                                    |  
      /   |                                    |  
     /    |                                    |  
    /     |                                    |  
   /      |                                    |  
  /       |                                    |  
 *        |                                    |  
 |        |                                    |  
 |        |                                    |  
 |        |           H      H                 |  
 |        |           C     O                  |  
 |        |         H    H                     |  
 |        |              H                     |  
 |        |                                    |  
 |        |                                    |  
 |        .------------------------------------.  
 |       /                                    /   
 |      /                                    /    
 |     /                                    /     
 |    /                                    /      
 |   /                                    /       
 |  /                                    /        
 | /                                    /         
 |/                                    /          
 *------------------------------------*           

Positions:
   0 H      8.140504    6.593865    6.005238    ( 0.0000,  0.0000,  0.0000)
   1 H      9.102088    8.177864    8.151704    ( 0.0000,  0.0000,  0.0000)
   2 H      8.413131    5.971181    7.647763    ( 0.0000,  0.0000,  0.0000)
   3 C      8.112072    6.871003    7.073066    ( 0.0000,  0.0000,  0.0000)
   4 O      9.082492    7.907167    7.206341    ( 0.0000,  0.0000,  0.0000)
   5 H      6.429383    8.209498    6.885562    ( 0.0000,  0.0000,  0.0000)
   6 H      5.972508    6.545526    7.356876    ( 0.0000,  0.0000,  0.0000)
   7 H      6.723062    7.630487    8.548146    ( 0.0000,  0.0000,  0.0000)
   8 C      6.728864    7.336056    7.484449    ( 0.0000,  0.0000,  0.0000)

Unit cell:
           periodic     x           y           z      points  spacing
  1. axis:    no    15.078000    0.000000    0.000000    70     0.2154
  2. axis:    no     0.000000   14.217100    0.000000    70     0.2031
  3. axis:    no     0.000000    0.000000   14.532100    70     0.2076

  Lengths:  15.078000  14.217100  14.532100
  Angles:   90.000000  90.000000  90.000000

Effective grid spacing dv^(1/3) = 0.2086

                     log10-error:    total        iterations:
           time      wfs    density  energy       poisson
iter:   1  17:04:25  -3.96          -44.943770           
iter:   2  17:04:31  -5.39  -3.08   -44.943761           
iter:   3  17:04:37  -4.98  -3.09   -44.943690           
iter:   4  17:04:43  -5.88  -3.44   -44.943690           
iter:   5  17:04:49  -5.13  -3.49   -44.943716           
iter:   6  17:04:55  -5.27  -3.37   -44.943685           
iter:   7  17:05:02  -6.76  -4.09   -44.943685           
iter:   8  17:05:08  -7.35  -4.08   -44.943685           
iter:   9  17:05:15  -6.97  -4.08   -44.943685           
iter:  10  17:05:21  -8.41  -4.20   -44.943685           

Converged after 10 iterations.

Dipole moment: (-0.208965, -0.120343, 0.233986) |e|*Ang

Energy contributions relative to reference atoms: (reference = -4171.049506)

Kinetic:        +34.025875
Potential:      -37.784591
External:        +0.000000
XC:             -41.087808
Entropy (-ST):   +0.000000
Local:           -0.097161
--------------------------
Free energy:    -44.943685
Extrapolated:   -44.943685

 Band  Eigenvalues  Occupancy
    0    -25.52317    2.00000
    1    -18.37961    2.00000
    2    -15.23234    2.00000
    3    -12.19208    2.00000
    4    -10.93502    2.00000
    5    -10.42342    2.00000
    6     -9.08502    2.00000
    7     -8.79394    2.00000
    8     -7.63696    2.00000
    9     -6.12130    2.00000
   10     -0.63244    0.00000
   11     -0.04538    0.00000
   12      0.19474    0.00000
   13      0.20083    0.00000
   14      0.35061    0.00000
   15      0.51025    0.00000

Fermi level: -3.37687

Gap: 5.489 eV
Transition (v -> c):
  (s=0, k=0, n=9, [0.00, 0.00, 0.00]) -> (s=0, k=0, n=10, [0.00, 0.00, 0.00])

Forces in eV/Ang:
  0 H    -0.04939    0.00600    0.01779
  1 H    -0.01565   -0.00941    0.02146
  2 H    -0.01179    0.00459    0.01502
  3 C     0.05362    0.00781   -0.00005
  4 O     0.01138    0.03486    0.02618
  5 H    -0.04569    0.02842   -0.00421
  6 H    -0.01889   -0.05993   -0.02939
  7 H    -0.02547    0.00886    0.02218
  8 C    -0.03831   -0.00381    0.00409

System changes: positions 

Initializing position-dependent things.

Density initialized from wave functions
          .------------------------------------.  
         /|                                    |  
        / |                                    |  
       /  |                                    |  
      /   |                                    |  
     /    |                                    |  
    /     |                                    |  
   /      |                                    |  
  /       |                                    |  
 *        |                                    |  
 |        |                                    |  
 |        |                                    |  
 |        |           H      H                 |  
 |        |           C     O                  |  
 |        |         H    H                     |  
 |        |              H                     |  
 |        |                                    |  
 |        |                                    |  
 |        .------------------------------------.  
 |       /                                    /   
 |      /                                    /    
 |     /                                    /     
 |    /                                    /      
 |   /                                    /       
 |  /                                    /        
 | /                                    /         
 |/                                    /          
 *------------------------------------*           

Positions:
   0 H      8.138252    6.595032    6.004175    ( 0.0000,  0.0000,  0.0000)
   1 H      9.103926    8.180743    8.154545    ( 0.0000,  0.0000,  0.0000)
   2 H      8.411641    5.971306    7.649205    ( 0.0000,  0.0000,  0.0000)
   3 C      8.111539    6.871641    7.073500    ( 0.0000,  0.0000,  0.0000)
   4 O      9.082935    7.907985    7.209367    ( 0.0000,  0.0000,  0.0000)
   5 H      6.425547    8.208702    6.887195    ( 0.0000,  0.0000,  0.0000)
   6 H      5.971723    6.543161    7.355624    ( 0.0000,  0.0000,  0.0000)
   7 H      6.718567    7.630308    8.547850    ( 0.0000,  0.0000,  0.0000)
   8 C      6.726810    7.335000    7.484549    ( 0.0000,  0.0000,  0.0000)

Unit cell:
           periodic     x           y           z      points  spacing
  1. axis:    no    15.078000    0.000000    0.000000    70     0.2154
  2. axis:    no     0.000000   14.217100    0.000000    70     0.2031
  3. axis:    no     0.000000    0.000000   14.532100    70     0.2076

  Lengths:  15.078000  14.217100  14.532100
  Angles:   90.000000  90.000000  90.000000

Effective grid spacing dv^(1/3) = 0.2086

                     log10-error:    total        iterations:
           time      wfs    density  energy       poisson
iter:   1  17:05:31  -3.71          -44.944375           
iter:   2  17:05:38  -5.16  -2.96   -44.944367           
iter:   3  17:05:45  -5.02  -2.97   -44.944277           
iter:   4  17:05:51  -5.35  -3.29   -44.944273           
iter:   5  17:05:57  -5.56  -3.46   -44.944270           
iter:   6  17:06:02  -5.96  -3.64   -44.944267           
iter:   7  17:06:09  -6.93  -4.01   -44.944267           
iter:   8  17:06:16  -6.81  -4.00   -44.944266           
iter:   9  17:06:22  -8.47  -4.66   -44.944266           

Converged after 9 iterations.

Dipole moment: (-0.209074, -0.119705, 0.233861) |e|*Ang

Energy contributions relative to reference atoms: (reference = -4171.049506)

Kinetic:        +33.812799
Potential:      -37.622783
External:        +0.000000
XC:             -41.036750
Entropy (-ST):   +0.000000
Local:           -0.097533
--------------------------
Free energy:    -44.944266
Extrapolated:   -44.944266

 Band  Eigenvalues  Occupancy
    0    -25.51031    2.00000
    1    -18.37733    2.00000
    2    -15.22999    2.00000
    3    -12.18746    2.00000
    4    -10.93429    2.00000
    5    -10.41707    2.00000
    6     -9.08314    2.00000
    7     -8.79066    2.00000
    8     -7.63282    2.00000
    9     -6.12169    2.00000
   10     -0.63303    0.00000
   11     -0.04747    0.00000
   12      0.19410    0.00000
   13      0.20069    0.00000
   14      0.35036    0.00000
   15      0.51008    0.00000

Fermi level: -3.37736

Gap: 5.489 eV
Transition (v -> c):
  (s=0, k=0, n=9, [0.00, 0.00, 0.00]) -> (s=0, k=0, n=10, [0.00, 0.00, 0.00])

Forces in eV/Ang:
  0 H    -0.03137    0.02072    0.06034
  1 H    -0.03353   -0.03295    0.00429
  2 H    -0.01404    0.01903   -0.00584
  3 C     0.04908    0.01328    0.01702
  4 O    -0.00552    0.02202    0.01426
  5 H    -0.04298    0.02825   -0.01707
  6 H    -0.01259   -0.05449   -0.02757
  7 H    -0.01910   -0.00101    0.02901
  8 C    -0.03192   -0.00050    0.00225

System changes: positions 

Initializing position-dependent things.

Density initialized from wave functions
          .------------------------------------.  
         /|                                    |  
        / |                                    |  
       /  |                                    |  
      /   |                                    |  
     /    |                                    |  
    /     |                                    |  
   /      |                                    |  
  /       |                                    |  
 *        |                                    |  
 |        |                                    |  
 |        |                                    |  
 |        |           H      H                 |  
 |        |           C     O                  |  
 |        |         H    H                     |  
 |        |              H                     |  
 |        |                                    |  
 |        |                                    |  
 |        .------------------------------------.  
 |       /                                    /   
 |      /                                    /    
 |     /                                    /     
 |    /                                    /      
 |   /                                    /       
 |  /                                    /        
 | /                                    /         
 |/                                    /          
 *------------------------------------*           

Positions:
   0 H      8.135509    6.597319    6.004195    ( 0.0000,  0.0000,  0.0000)
   1 H      9.105843    8.183954    8.157999    ( 0.0000,  0.0000,  0.0000)
   2 H      8.409255    5.971443    7.650750    ( 0.0000,  0.0000,  0.0000)
   3 C      8.111317    6.872873    7.074742    ( 0.0000,  0.0000,  0.0000)
   4 O      9.083504    7.909393    7.213245    ( 0.0000,  0.0000,  0.0000)
   5 H      6.419865    8.207990    6.888741    ( 0.0000,  0.0000,  0.0000)
   6 H      5.970261    6.539285    7.353746    ( 0.0000,  0.0000,  0.0000)
   7 H      6.712262    7.629747    8.548157    ( 0.0000,  0.0000,  0.0000)
   8 C      6.723538    7.333676    7.484753    ( 0.0000,  0.0000,  0.0000)

Unit cell:
           periodic     x           y           z      points  spacing
  1. axis:    no    15.078000    0.000000    0.000000    70     0.2154
  2. axis:    no     0.000000   14.217100    0.000000    70     0.2031
  3. axis:    no     0.000000    0.000000   14.532100    70     0.2076

  Lengths:  15.078000  14.217100  14.532100
  Angles:   90.000000  90.000000  90.000000

Effective grid spacing dv^(1/3) = 0.2086

                     log10-error:    total        iterations:
           time      wfs    density  energy       poisson
iter:   1  17:06:34  -3.46          -44.945001           
iter:   2  17:06:40  -4.91  -2.86   -44.944993           
iter:   3  17:06:46  -4.95  -2.87   -44.944875           
iter:   4  17:06:53  -5.05  -3.13   -44.944863           
iter:   5  17:06:57  -5.03  -3.35   -44.944868           
iter:   6  17:07:05  -5.41  -3.42   -44.944852           
iter:   7  17:07:12  -6.89  -3.89   -44.944853           
iter:   8  17:07:18  -6.31  -3.89   -44.944852           
iter:   9  17:07:24  -7.72  -4.11   -44.944852           

Converged after 9 iterations.

Dipole moment: (-0.208911, -0.119111, 0.233643) |e|*Ang

Energy contributions relative to reference atoms: (reference = -4171.049506)

Kinetic:        +33.529187
Potential:      -37.406378
External:        +0.000000
XC:             -40.969078
Entropy (-ST):   +0.000000
Local:           -0.098583
--------------------------
Free energy:    -44.944852
Extrapolated:   -44.944852

 Band  Eigenvalues  Occupancy
    0    -25.50096    2.00000
    1    -18.37013    2.00000
    2    -15.22742    2.00000
    3    -12.18429    2.00000
    4    -10.93188    2.00000
    5    -10.40659    2.00000
    6     -9.07896    2.00000
    7     -8.78781    2.00000
    8     -7.62936    2.00000
    9     -6.12429    2.00000
   10     -0.63363    0.00000
   11     -0.04937    0.00000
   12      0.19359    0.00000
   13      0.20035    0.00000
   14      0.35022    0.00000
   15      0.50983    0.00000

Fermi level: -3.37896

Gap: 5.491 eV
Transition (v -> c):
  (s=0, k=0, n=9, [0.00, 0.00, 0.00]) -> (s=0, k=0, n=10, [0.00, 0.00, 0.00])

Forces in eV/Ang:
  0 H    -0.00814    0.03205    0.09058
  1 H    -0.04997   -0.05125    0.00160
  2 H    -0.00883    0.03315   -0.02116
  3 C     0.01472    0.03080    0.03711
  4 O    -0.03169   -0.00225   -0.00630
  5 H    -0.03415    0.01286   -0.02052
  6 H     0.00868   -0.03440   -0.02324
  7 H    -0.01464   -0.01495    0.02157
  8 C    -0.01555    0.00630    0.00260

System changes: positions 

Initializing position-dependent things.

Density initialized from wave functions
          .------------------------------------.  
         /|                                    |  
        / |                                    |  
       /  |                                    |  
      /   |                                    |  
     /    |                                    |  
    /     |                                    |  
   /      |                                    |  
  /       |                                    |  
 *        |                                    |  
 |        |                                    |  
 |        |                                    |  
 |        |           H      H                 |  
 |        |           C     O                  |  
 |        |         H    H                     |  
 |        |              H                     |  
 |        |                                    |  
 |        |                                    |  
 |        .------------------------------------.  
 |       /                                    /   
 |      /                                    /    
 |     /                                    /     
 |    /                                    /      
 |   /                                    /       
 |  /                                    /        
 | /                                    /         
 |/                                    /          
 *------------------------------------*           

Positions:
   0 H      8.133023    6.600090    6.005790    ( 0.0000,  0.0000,  0.0000)
   1 H      9.106791    8.186074    8.161180    ( 0.0000,  0.0000,  0.0000)
   2 H      8.406867    5.971952    7.651847    ( 0.0000,  0.0000,  0.0000)
   3 C      8.111114    6.874675    7.076621    ( 0.0000,  0.0000,  0.0000)
   4 O      9.083552    7.910723    7.216695    ( 0.0000,  0.0000,  0.0000)
   5 H      6.414017    8.207447    6.889778    ( 0.0000,  0.0000,  0.0000)
   6 H      5.969027    6.535135    7.351654    ( 0.0000,  0.0000,  0.0000)
   7 H      6.706086    7.628858    8.548815    ( 0.0000,  0.0000,  0.0000)
   8 C      6.720197    7.332622    7.485047    ( 0.0000,  0.0000,  0.0000)

Unit cell:
           periodic     x           y           z      points  spacing
  1. axis:    no    15.078000    0.000000    0.000000    70     0.2154
  2. axis:    no     0.000000   14.217100    0.000000    70     0.2031
  3. axis:    no     0.000000    0.000000   14.532100    70     0.2076

  Lengths:  15.078000  14.217100  14.532100
  Angles:   90.000000  90.000000  90.000000

Effective grid spacing dv^(1/3) = 0.2086

                     log10-error:    total        iterations:
           time      wfs    density  energy       poisson
iter:   1  17:07:35  -3.48          -44.945552           
iter:   2  17:07:42  -4.92  -2.90   -44.945544           
iter:   3  17:07:48  -5.13  -2.90   -44.945453           
iter:   4  17:07:55  -4.90  -3.08   -44.945431           
iter:   5  17:08:01  -5.44  -3.31   -44.945420           
iter:   6  17:08:07  -6.41  -3.71   -44.945419           
iter:   7  17:08:15  -6.27  -3.86   -44.945421           
iter:   8  17:08:22  -6.03  -3.78   -44.945419           
iter:   9  17:08:28  -7.35  -4.28   -44.945419           
iter:  10  17:08:36  -6.97  -4.38   -44.945419           
iter:  11  17:08:43  -7.05  -4.24   -44.945419           
iter:  12  17:08:48  -8.02  -5.00   -44.945419           

Converged after 12 iterations.

Dipole moment: (-0.208342, -0.118732, 0.233506) |e|*Ang

Energy contributions relative to reference atoms: (reference = -4171.049506)

Kinetic:        +33.351274
Potential:      -37.272883
External:        +0.000000
XC:             -40.926316
Entropy (-ST):   +0.000000
Local:           -0.097494
--------------------------
Free energy:    -44.945419
Extrapolated:   -44.945419

 Band  Eigenvalues  Occupancy
    0    -25.49959    2.00000
    1    -18.36421    2.00000
    2    -15.22669    2.00000
    3    -12.18502    2.00000
    4    -10.93136    2.00000
    5    -10.39840    2.00000
    6     -9.07616    2.00000
    7     -8.78755    2.00000
    8     -7.62616    2.00000
    9     -6.12609    2.00000
   10     -0.63433    0.00000
   11     -0.05049    0.00000
   12      0.19328    0.00000
   13      0.20005    0.00000
   14      0.35021    0.00000
   15      0.50967    0.00000

Fermi level: -3.38021

Gap: 5.492 eV
Transition (v -> c):
  (s=0, k=0, n=9, [0.00, 0.00, 0.00]) -> (s=0, k=0, n=10, [0.00, 0.00, 0.00])

Forces in eV/Ang:
  0 H     0.01138    0.03447    0.08997
  1 H    -0.05798   -0.06023    0.00140
  2 H     0.00009    0.03832   -0.02254
  3 C    -0.03560    0.03438    0.04563
  4 O    -0.04107   -0.00798   -0.02173
  5 H    -0.02358   -0.00692   -0.01658
  6 H     0.03247   -0.00802   -0.01658
  7 H    -0.01457   -0.02511    0.01166
  8 C    -0.01574    0.01246    0.00518

System changes: positions 

Initializing position-dependent things.

Density initialized from wave functions
          .------------------------------------.  
         /|                                    |  
        / |                                    |  
       /  |                                    |  
      /   |                                    |  
     /    |                                    |  
    /     |                                    |  
   /      |                                    |  
  /       |                                    |  
 *        |                                    |  
 |        |                                    |  
 |        |                                    |  
 |        |           H      H                 |  
 |        |           C     O                  |  
 |        |         H    H                     |  
 |        |              H                     |  
 |        |                                    |  
 |        |                                    |  
 |        .------------------------------------.  
 |       /                                    /   
 |      /                                    /    
 |     /                                    /     
 |    /                                    /      
 |   /                                    /       
 |  /                                    /        
 | /                                    /         
 |/                                    /          
 *------------------------------------*           

Positions:
   0 H      8.129388    6.605370    6.010312    ( 0.0000,  0.0000,  0.0000)
   1 H      9.107004    8.188086    8.166188    ( 0.0000,  0.0000,  0.0000)
   2 H      8.403003    5.973402    7.653205    ( 0.0000,  0.0000,  0.0000)
   3 C      8.109925    6.878291    7.080621    ( 0.0000,  0.0000,  0.0000)
   4 O      9.082923    7.913004    7.221778    ( 0.0000,  0.0000,  0.0000)
   5 H      6.404065    8.206433    6.890975    ( 0.0000,  0.0000,  0.0000)
   6 H      5.967689    6.528236    7.347942    ( 0.0000,  0.0000,  0.0000)
   7 H      6.695773    7.626813    8.550253    ( 0.0000,  0.0000,  0.0000)
   8 C      6.714168    7.331292    7.485739    ( 0.0000,  0.0000,  0.0000)

Unit cell:
           periodic     x           y           z      points  spacing
  1. axis:    no    15.078000    0.000000    0.000000    70     0.2154
  2. axis:    no     0.000000   14.217100    0.000000    70     0.2031
  3. axis:    no     0.000000    0.000000   14.532100    70     0.2076

  Lengths:  15.078000  14.217100  14.532100
  Angles:   90.000000  90.000000  90.000000

Effective grid spacing dv^(1/3) = 0.2086

                     log10-error:    total        iterations:
           time      wfs    density  energy       poisson
iter:   1  17:08:58  -3.04          -44.946645           
iter:   2  17:09:04  -4.46  -2.70   -44.946644           
iter:   3  17:09:11  -5.17  -2.70   -44.946514           
iter:   4  17:09:18  -4.46  -2.79   -44.946388           
iter:   5  17:09:24  -6.00  -3.16   -44.946379           
iter:   6  17:09:30  -5.28  -3.28   -44.946373           
iter:   7  17:09:37  -6.21  -3.64   -44.946370           
iter:   8  17:09:43  -6.86  -3.78   -44.946369           
iter:   9  17:09:50  -6.78  -3.81   -44.946370           
iter:  10  17:09:56  -7.54  -4.24   -44.946370           

Converged after 10 iterations.

Dipole moment: (-0.207576, -0.118412, 0.233412) |e|*Ang

Energy contributions relative to reference atoms: (reference = -4171.049506)

Kinetic:        +33.192261
Potential:      -37.151079
External:        +0.000000
XC:             -40.888769
Entropy (-ST):   +0.000000
Local:           -0.098783
--------------------------
Free energy:    -44.946370
Extrapolated:   -44.946370

 Band  Eigenvalues  Occupancy
    0    -25.50499    2.00000
    1    -18.35647    2.00000
    2    -15.22614    2.00000
    3    -12.18789    2.00000
    4    -10.93059    2.00000
    5    -10.38728    2.00000
    6     -9.07431    2.00000
    7     -8.79010    2.00000
    8     -7.62302    2.00000
    9     -6.13095    2.00000
   10     -0.63538    0.00000
   11     -0.05130    0.00000
   12      0.19331    0.00000
   13      0.19988    0.00000
   14      0.35046    0.00000
   15      0.50950    0.00000

Fermi level: -3.38317

Gap: 5.496 eV
Transition (v -> c):
  (s=0, k=0, n=9, [0.00, 0.00, 0.00]) -> (s=0, k=0, n=10, [0.00, 0.00, 0.00])

Forces in eV/Ang:
  0 H     0.03215    0.02761    0.05772
  1 H    -0.06046   -0.06084    0.00797
  2 H     0.01265    0.03865   -0.01061
  3 C    -0.10391    0.03712    0.04764
  4 O    -0.05354   -0.00945   -0.02118
  5 H    -0.00616   -0.03682   -0.00548
  6 H     0.06192    0.02763   -0.00607
  7 H    -0.01900   -0.03602   -0.00452
  8 C     0.01034    0.02268    0.00921

System changes: positions 

Initializing position-dependent things.

Density initialized from wave functions
          .------------------------------------.  
         /|                                    |  
        / |                                    |  
       /  |                                    |  
      /   |                                    |  
     /    |                                    |  
    /     |                                    |  
   /      |                                    |  
  /       |                                    |  
 *        |                                    |  
 |        |                                    |  
 |        |                                    |  
 |        |           H      H                 |  
 |        |           C     O                  |  
 |        |         H    H                     |  
 |        |              H                     |  
 |        |                                    |  
 |        |                                    |  
 |        .------------------------------------.  
 |       /                                    /   
 |      /                                    /    
 |     /                                    /     
 |    /                                    /      
 |   /                                    /       
 |  /                                    /        
 | /                                    /         
 |/                                    /          
 *------------------------------------*           

Positions:
   0 H      8.125616    6.610616    6.016096    ( 0.0000,  0.0000,  0.0000)
   1 H      9.105263    8.188056    8.171303    ( 0.0000,  0.0000,  0.0000)
   2 H      8.399837    5.976133    7.654431    ( 0.0000,  0.0000,  0.0000)
   3 C      8.107360    6.882494    7.085180    ( 0.0000,  0.0000,  0.0000)
   4 O      9.081054    7.915285    7.226598    ( 0.0000,  0.0000,  0.0000)
   5 H      6.394255    8.205166    6.892047    ( 0.0000,  0.0000,  0.0000)
   6 H      5.967950    6.521693    7.343809    ( 0.0000,  0.0000,  0.0000)
   7 H      6.685826    7.624427    8.551582    ( 0.0000,  0.0000,  0.0000)
   8 C      6.708654    7.330569    7.486573    ( 0.0000,  0.0000,  0.0000)

Unit cell:
           periodic     x           y           z      points  spacing
  1. axis:    no    15.078000    0.000000    0.000000    70     0.2154
  2. axis:    no     0.000000   14.217100    0.000000    70     0.2031
  3. axis:    no     0.000000    0.000000   14.532100    70     0.2076

  Lengths:  15.078000  14.217100  14.532100
  Angles:   90.000000  90.000000  90.000000

Effective grid spacing dv^(1/3) = 0.2086

                     log10-error:    total        iterations:
           time      wfs    density  energy       poisson
iter:   1  17:10:07  -3.04          -44.947669           
iter:   2  17:10:13  -4.44  -2.70   -44.947684           
iter:   3  17:10:19  -5.51  -2.70   -44.947670           
iter:   4  17:10:25  -4.48  -2.71   -44.947481           
iter:   5  17:10:31  -5.15  -3.20   -44.947502           
iter:   6  17:10:37  -6.85  -3.28   -44.947493           
iter:   7  17:10:44  -5.15  -3.31   -44.947478           
iter:   8  17:10:50  -5.82  -3.62   -44.947476           
iter:   9  17:10:56  -6.61  -3.73   -44.947473           
iter:  10  17:11:02  -6.56  -3.91   -44.947474           
iter:  11  17:11:10  -6.88  -4.10   -44.947473           
iter:  12  17:11:16  -7.80  -4.52   -44.947473           

Converged after 12 iterations.

Dipole moment: (-0.206929, -0.118744, 0.233253) |e|*Ang

Energy contributions relative to reference atoms: (reference = -4171.049506)

Kinetic:        +33.253982
Potential:      -37.197472
External:        +0.000000
XC:             -40.904748
Entropy (-ST):   +0.000000
Local:           -0.099236
--------------------------
Free energy:    -44.947473
Extrapolated:   -44.947473

 Band  Eigenvalues  Occupancy
    0    -25.51538    2.00000
    1    -18.35788    2.00000
    2    -15.22582    2.00000
    3    -12.19233    2.00000
    4    -10.93392    2.00000
    5    -10.38158    2.00000
    6     -9.07842    2.00000
    7     -8.79413    2.00000
    8     -7.61995    2.00000
    9     -6.13475    2.00000
   10     -0.63600    0.00000
   11     -0.05085    0.00000
   12      0.19338    0.00000
   13      0.20018    0.00000
   14      0.35074    0.00000
   15      0.50949    0.00000

Fermi level: -3.38538

Gap: 5.499 eV
Transition (v -> c):
  (s=0, k=0, n=9, [0.00, 0.00, 0.00]) -> (s=0, k=0, n=10, [0.00, 0.00, 0.00])

Forces in eV/Ang:
  0 H     0.04358    0.01724    0.00724
  1 H    -0.05235   -0.04832    0.02263
  2 H     0.01684    0.02766    0.01314
  3 C    -0.13249    0.02574    0.02748
  4 O    -0.06495   -0.00037   -0.02331
  5 H     0.00641   -0.05473    0.00254
  6 H     0.07536    0.05738    0.00705
  7 H    -0.02846   -0.03977   -0.00794
  8 C    -0.00666    0.02084    0.01700

System changes: positions 

Initializing position-dependent things.

Density initialized from wave functions
          .------------------------------------.  
         /|                                    |  
        / |                                    |  
       /  |                                    |  
      /   |                                    |  
     /    |                                    |  
    /     |                                    |  
   /      |                                    |  
  /       |                                    |  
 *        |                                    |  
 |        |                                    |  
 |        |                                    |  
 |        |           H      H                 |  
 |        |           C     O                  |  
 |        |         H    H                     |  
 |        |              H                     |  
 |        |                                    |  
 |        |                                    |  
 |        .------------------------------------.  
 |       /                                    /   
 |      /                                    /    
 |     /                                    /     
 |    /                                    /      
 |   /                                    /       
 |  /                                    /        
 | /                                    /         
 |/                                    /          
 *------------------------------------*           

Positions:
   0 H      8.118866    6.622072    6.027632    ( 0.0000,  0.0000,  0.0000)
   1 H      9.101461    8.187978    8.182435    ( 0.0000,  0.0000,  0.0000)
   2 H      8.393145    5.982319    7.657395    ( 0.0000,  0.0000,  0.0000)
   3 C      8.099709    6.891219    7.094674    ( 0.0000,  0.0000,  0.0000)
   4 O      9.075482    7.919768    7.236700    ( 0.0000,  0.0000,  0.0000)
[...]
iter:   5  17:39:06  -7.89  -4.42   -44.954313           

Converged after 5 iterations.

Dipole moment: (-0.216927, -0.125984, 0.229118) |e|*Ang

Energy contributions relative to reference atoms: (reference = -4171.049506)

Kinetic:        +33.605527
Potential:      -37.472542
External:        +0.000000
XC:             -40.983281
Entropy (-ST):   +0.000000
Local:           -0.104018
--------------------------
Free energy:    -44.954313
Extrapolated:   -44.954313

 Band  Eigenvalues  Occupancy
    0    -25.51146    2.00000
    1    -18.37811    2.00000
    2    -15.21873    2.00000
    3    -12.18125    2.00000
    4    -10.92742    2.00000
    5    -10.39871    2.00000
    6     -9.09586    2.00000
    7     -8.80198    2.00000
    8     -7.64769    2.00000
    9     -6.12624    2.00000
   10     -0.63669    0.00000
   11     -0.04665    0.00000
   12      0.19319    0.00000
   13      0.19984    0.00000
   14      0.34878    0.00000
   15      0.51056    0.00000

Fermi level: -3.38147

Gap: 5.490 eV
Transition (v -> c):
  (s=0, k=0, n=9, [0.00, 0.00, 0.00]) -> (s=0, k=0, n=10, [0.00, 0.00, 0.00])

Forces in eV/Ang:
  0 H    -0.00507   -0.00057    0.00006
  1 H     0.00245    0.00167   -0.00378
  2 H     0.00030   -0.00258    0.00086
  3 C    -0.00043   -0.00316    0.00159
  4 O    -0.00981    0.00324   -0.00998
  5 H     0.00111   -0.00176    0.00035
  6 H    -0.00002    0.00174   -0.00389
  7 H    -0.00118   -0.00475   -0.00413
  8 C    -0.00424   -0.00620   -0.00151

System changes: positions 

Initializing position-dependent things.

Density initialized from wave functions
          .------------------------------------.  
         /|                                    |  
        / |                                    |  
       /  |                                    |  
      /   |                                    |  
     /    |                                    |  
    /     |                                    |  
   /      |                                    |  
  /       |                                    |  
 *        |                                    |  
 |        |                                    |  
 |        |                                    |  
 |        |           H     H                  |  
 |        |           C     O                  |  
 |        |         H    H                     |  
 |        |              H                     |  
 |        |                                    |  
 |        |                                    |  
 |        .------------------------------------.  
 |       /                                    /   
 |      /                                    /    
 |     /                                    /     
 |    /                                    /      
 |   /                                    /       
 |  /                                    /        
 | /                                    /         
 |/                                    /          
 *------------------------------------*           

Positions:
   0 H      8.118460    6.629789    6.034490    ( 0.0000,  0.0000,  0.0000)
   1 H      9.040956    8.178988    8.222563    ( 0.0000,  0.0000,  0.0000)
   2 H      8.370494    5.983284    7.672539    ( 0.0000,  0.0000,  0.0000)
   3 C      8.074525    6.889606    7.105531    ( 0.0000,  0.0000,  0.0000)
   4 O      9.041668    7.926030    7.271671    ( 0.0000,  0.0000,  0.0000)
   5 H      6.348319    8.191980    6.904751    ( 0.0000,  0.0000,  0.0000)
   6 H      5.948334    6.497320    7.320407    ( 0.0000,  0.0000,  0.0000)
   7 H      6.616082    7.582973    8.562332    ( 0.0000,  0.0000,  0.0000)
   8 C      6.667789    7.316144    7.491971    ( 0.0000,  0.0000,  0.0000)

Unit cell:
           periodic     x           y           z      points  spacing
  1. axis:    no    15.078000    0.000000    0.000000    70     0.2154
  2. axis:    no     0.000000   14.217100    0.000000    70     0.2031
  3. axis:    no     0.000000    0.000000   14.532100    70     0.2076

  Lengths:  15.078000  14.217100  14.532100
  Angles:   90.000000  90.000000  90.000000

Effective grid spacing dv^(1/3) = 0.2086

                     log10-error:    total        iterations:
           time      wfs    density  energy       poisson
iter:   1  17:39:15  -4.21          -44.954331           
iter:   2  17:39:21  -5.51  -3.36   -44.954334           
iter:   3  17:39:28  -6.43  -3.36   -44.954333           
iter:   4  17:39:35  -6.27  -3.37   -44.954324           
iter:   5  17:39:41  -5.99  -3.65   -44.954323           
iter:   6  17:39:48  -6.41  -3.94   -44.954322           
iter:   7  17:39:54  -7.50  -4.08   -44.954321           

Converged after 7 iterations.

Dipole moment: (-0.215345, -0.126676, 0.229648) |e|*Ang

Energy contributions relative to reference atoms: (reference = -4171.049506)

Kinetic:        +33.628491
Potential:      -37.490412
External:        +0.000000
XC:             -40.988352
Entropy (-ST):   +0.000000
Local:           -0.104048
--------------------------
Free energy:    -44.954321
Extrapolated:   -44.954321

 Band  Eigenvalues  Occupancy
    0    -25.51185    2.00000
    1    -18.37702    2.00000
    2    -15.21756    2.00000
    3    -12.18365    2.00000
    4    -10.92647    2.00000
    5    -10.39568    2.00000
    6     -9.09760    2.00000
    7     -8.80022    2.00000
    8     -7.64462    2.00000
    9     -6.12609    2.00000
   10     -0.63686    0.00000
   11     -0.04684    0.00000
   12      0.19330    0.00000
   13      0.20007    0.00000
   14      0.34897    0.00000
   15      0.51045    0.00000

Fermi level: -3.38148

Gap: 5.489 eV
Transition (v -> c):
  (s=0, k=0, n=9, [0.00, 0.00, 0.00]) -> (s=0, k=0, n=10, [0.00, 0.00, 0.00])

Forces in eV/Ang:
  0 H    -0.00515   -0.00456    0.00171
  1 H    -0.00028    0.00043   -0.00430
  2 H    -0.00259   -0.00190   -0.00129
  3 C    -0.00248   -0.00157   -0.00300
  4 O     0.01160   -0.00186   -0.00163
  5 H    -0.00123   -0.00518    0.00121
  6 H    -0.00414    0.00195   -0.00783
  7 H    -0.00208   -0.00126   -0.00102
  8 C     0.00412   -0.00370    0.00137

System changes: positions 

Initializing position-dependent things.

Density initialized from wave functions
          .------------------------------------.  
         /|                                    |  
        / |                                    |  
       /  |                                    |  
      /   |                                    |  
     /    |                                    |  
    /     |                                    |  
   /      |                                    |  
  /       |                                    |  
 *        |                                    |  
 |        |                                    |  
 |        |                                    |  
 |        |           H     H                  |  
 |        |           C     O                  |  
 |        |         H    H                     |  
 |        |              H                     |  
 |        |                                    |  
 |        |                                    |  
 |        .------------------------------------.  
 |       /                                    /   
 |      /                                    /    
 |     /                                    /     
 |    /                                    /      
 |   /                                    /       
 |  /                                    /        
 | /                                    /         
 |/                                    /          
 *------------------------------------*           

Positions:
   0 H      8.118203    6.629043    6.034532    ( 0.0000,  0.0000,  0.0000)
   1 H      9.038431    8.179392    8.222732    ( 0.0000,  0.0000,  0.0000)
   2 H      8.369355    5.981745    7.672251    ( 0.0000,  0.0000,  0.0000)
   3 C      8.074288    6.888617    7.105595    ( 0.0000,  0.0000,  0.0000)
   4 O      9.042032    7.924311    7.272370    ( 0.0000,  0.0000,  0.0000)
   5 H      6.348927    8.192025    6.905193    ( 0.0000,  0.0000,  0.0000)
   6 H      5.948057    6.497453    7.319463    ( 0.0000,  0.0000,  0.0000)
   7 H      6.615841    7.581971    8.562344    ( 0.0000,  0.0000,  0.0000)
   8 C      6.667853    7.315752    7.491885    ( 0.0000,  0.0000,  0.0000)

Unit cell:
           periodic     x           y           z      points  spacing
  1. axis:    no    15.078000    0.000000    0.000000    70     0.2154
  2. axis:    no     0.000000   14.217100    0.000000    70     0.2031
  3. axis:    no     0.000000    0.000000   14.532100    70     0.2076

  Lengths:  15.078000  14.217100  14.532100
  Angles:   90.000000  90.000000  90.000000

Effective grid spacing dv^(1/3) = 0.2086

                     log10-error:    total        iterations:
           time      wfs    density  energy       poisson
iter:   1  17:40:05  -4.28          -44.954338           
iter:   2  17:40:11  -5.62  -3.38   -44.954340           
iter:   3  17:40:18  -6.55  -3.38   -44.954340           
iter:   4  17:40:24  -5.62  -3.37   -44.954330           
iter:   5  17:40:31  -7.27  -4.00   -44.954329           
iter:   6  17:40:37  -7.00  -4.05   -44.954331           
iter:   7  17:40:44  -6.45  -3.87   -44.954328           
iter:   8  17:40:50  -8.33  -4.58   -44.954329           

Converged after 8 iterations.

Dipole moment: (-0.216554, -0.126076, 0.229319) |e|*Ang

Energy contributions relative to reference atoms: (reference = -4171.049506)

Kinetic:        +33.642536
Potential:      -37.499861
External:        +0.000000
XC:             -40.992125
Entropy (-ST):   +0.000000
Local:           -0.104878
--------------------------
Free energy:    -44.954329
Extrapolated:   -44.954329

 Band  Eigenvalues  Occupancy
    0    -25.51219    2.00000
    1    -18.37809    2.00000
    2    -15.21839    2.00000
    3    -12.18194    2.00000
    4    -10.92728    2.00000
    5    -10.39872    2.00000
    6     -9.09670    2.00000
    7     -8.80072    2.00000
    8     -7.64560    2.00000
    9     -6.12573    2.00000
   10     -0.63655    0.00000
   11     -0.04665    0.00000
   12      0.19322    0.00000
   13      0.20011    0.00000
   14      0.34880    0.00000
   15      0.51061    0.00000

Fermi level: -3.38114

Gap: 5.489 eV
Transition (v -> c):
  (s=0, k=0, n=9, [0.00, 0.00, 0.00]) -> (s=0, k=0, n=10, [0.00, 0.00, 0.00])

Forces in eV/Ang:
  0 H    -0.00422   -0.00295    0.00011
  1 H     0.00045   -0.00013   -0.00496
  2 H    -0.00090   -0.00071    0.00005
  3 C     0.00139    0.00221   -0.00397
  4 O     0.00911    0.00699   -0.00401
  5 H    -0.00098   -0.00254   -0.00053
  6 H    -0.00548    0.00249   -0.00716
  7 H    -0.00236   -0.00180    0.00009
  8 C     0.00201   -0.00279    0.00238

System changes: positions 

Initializing position-dependent things.

Density initialized from wave functions
          .------------------------------------.  
         /|                                    |  
        / |                                    |  
       /  |                                    |  
      /   |                                    |  
     /    |                                    |  
    /     |                                    |  
   /      |                                    |  
  /       |                                    |  
 *        |                                    |  
 |        |                                    |  
 |        |                                    |  
 |        |           H     H                  |  
 |        |           C     O                  |  
 |        |         H    H                     |  
 |        |              H                     |  
 |        |                                    |  
 |        |                                    |  
 |        .------------------------------------.  
 |       /                                    /   
 |      /                                    /    
 |     /                                    /     
 |    /                                    /      
 |   /                                    /       
 |  /                                    /        
 | /                                    /         
 |/                                    /          
 *------------------------------------*           

Positions:
   0 H      8.118066    6.628777    6.034487    ( 0.0000,  0.0000,  0.0000)
   1 H      9.038945    8.179415    8.222257    ( 0.0000,  0.0000,  0.0000)
   2 H      8.369363    5.981641    7.672014    ( 0.0000,  0.0000,  0.0000)
   3 C      8.074735    6.888752    7.105410    ( 0.0000,  0.0000,  0.0000)
   4 O      9.042683    7.924366    7.271894    ( 0.0000,  0.0000,  0.0000)
   5 H      6.349113    8.191788    6.905203    ( 0.0000,  0.0000,  0.0000)
   6 H      5.948346    6.497862    7.319374    ( 0.0000,  0.0000,  0.0000)
   7 H      6.616282    7.582476    8.562303    ( 0.0000,  0.0000,  0.0000)
   8 C      6.668451    7.315831    7.492004    ( 0.0000,  0.0000,  0.0000)

Unit cell:
           periodic     x           y           z      points  spacing
  1. axis:    no    15.078000    0.000000    0.000000    70     0.2154
  2. axis:    no     0.000000   14.217100    0.000000    70     0.2031
  3. axis:    no     0.000000    0.000000   14.532100    70     0.2076

  Lengths:  15.078000  14.217100  14.532100
  Angles:   90.000000  90.000000  90.000000

Effective grid spacing dv^(1/3) = 0.2086

                     log10-error:    total        iterations:
           time      wfs    density  energy       poisson
iter:   1  17:41:01  -5.18          -44.954333           
iter:   2  17:41:08  -6.57  -3.81   -44.954333           
iter:   3  17:41:14  -7.59  -3.81   -44.954332           
iter:   4  17:41:22  -6.43  -3.84   -44.954331           
iter:   5  17:41:30  -7.58  -4.30   -44.954331           

Converged after 5 iterations.

Dipole moment: (-0.216777, -0.125901, 0.229343) |e|*Ang

Energy contributions relative to reference atoms: (reference = -4171.049506)

Kinetic:        +33.643732
Potential:      -37.502157
External:        +0.000000
XC:             -40.992888
Entropy (-ST):   +0.000000
Local:           -0.103017
--------------------------
Free energy:    -44.954331
Extrapolated:   -44.954331

 Band  Eigenvalues  Occupancy
    0    -25.51223    2.00000
    1    -18.37936    2.00000
    2    -15.21868    2.00000
    3    -12.18226    2.00000
    4    -10.92819    2.00000
    5    -10.39915    2.00000
    6     -9.09590    2.00000
    7     -8.80191    2.00000
    8     -7.64644    2.00000
    9     -6.12602    2.00000
   10     -0.63657    0.00000
   11     -0.04666    0.00000
   12      0.19320    0.00000
   13      0.20006    0.00000
   14      0.34879    0.00000
   15      0.51058    0.00000

Fermi level: -3.38129

Gap: 5.489 eV
Transition (v -> c):
  (s=0, k=0, n=9, [0.00, 0.00, 0.00]) -> (s=0, k=0, n=10, [0.00, 0.00, 0.00])

Forces in eV/Ang:
  0 H    -0.00245   -0.00309   -0.00278
  1 H     0.00250    0.00104   -0.00617
  2 H     0.00179    0.00040   -0.00031
  3 C    -0.00200   -0.00467   -0.00137
  4 O    -0.00216    0.00558   -0.00334
  5 H    -0.00012    0.00117   -0.00256
  6 H    -0.00387   -0.00025   -0.00557
  7 H    -0.00037   -0.00185    0.00296
  8 C    -0.00239   -0.00211   -0.00114

Timing:                                      incl.     excl.
-------------------------------------------------------------------
Density initialized from wave functions:    48.348    48.347   1.6% ||
 Symmetrize density:                         0.001     0.001   0.0% |
Forces:                                    100.638   100.638   3.3% ||
Hamiltonian:                                98.283     2.959   0.1% |
 Atomic:                                     9.594     2.288   0.1% |
  XC Correction:                             7.306     7.306   0.2% |
 Calculate atomic Hamiltonians:             15.855    15.855   0.5% |
 Communicate:                                0.003     0.003   0.0% |
 Initialize Hamiltonian:                     0.002     0.002   0.0% |
 Poisson:                                    0.648     0.648   0.0% |
 XC 3D grid:                                69.222    69.222   2.3% ||
LCAO initialization:                         0.908     0.262   0.0% |
 LCAO eigensolver:                           0.035     0.001   0.0% |
  Calculate projections:                     0.000     0.000   0.0% |
  DenseAtomicCorrection:                     0.000     0.000   0.0% |
  Distribute overlap matrix:                 0.007     0.007   0.0% |
  Orbital Layouts:                           0.002     0.002   0.0% |
  Potential matrix:                          0.025     0.025   0.0% |
 LCAO to grid:                               0.561     0.561   0.0% |
 Set positions (LCAO WFS):                   0.050     0.007   0.0% |
  Basic WFS set positions:                   0.001     0.001   0.0% |
  Basis functions set positions:             0.000     0.000   0.0% |
  P tci:                                     0.026     0.026   0.0% |
  ST tci:                                    0.006     0.006   0.0% |
  mktci:                                     0.009     0.009   0.0% |
PWDescriptor:                                0.042     0.042   0.0% |
Redistribute:                                0.052     0.052   0.0% |
SCF-cycle:                                2694.039     0.538   0.0% |
 Davidson:                                1372.025   167.050   5.5% |-|
  Apply H:                                 278.249   277.069   9.2% |---|
   HMM T:                                    1.180     1.180   0.0% |
  Subspace diag:                           295.308     0.087   0.0% |
   calc_h_matrix:                          279.413     8.616   0.3% |
    Apply H:                               270.796   269.649   8.9% |---|
     HMM T:                                  1.147     1.147   0.0% |
   diagonalize:                              0.276     0.276   0.0% |
   rotate_psi:                              15.532    15.532   0.5% |
  calc. matrices:                          604.789    73.376   2.4% ||
   Apply H:                                531.413   529.094  17.5% |------|
    HMM T:                                   2.319     2.319   0.1% |
  diagonalize:                               0.716     0.716   0.0% |
  rotate_psi:                               25.914    25.914   0.9% |
 Density:                                  494.143     0.021   0.0% |
  Atomic density matrices:                   0.844     0.844   0.0% |
  Mix:                                     345.727   345.727  11.4% |----|
  Multipole moments:                         0.188     0.188   0.0% |
  Pseudo density:                          147.363   147.346   4.9% |-|
   Symmetrize density:                       0.017     0.017   0.0% |
 Hamiltonian:                              822.811    21.388   0.7% |
  Atomic:                                   77.330    19.215   0.6% |
   XC Correction:                           58.115    58.115   1.9% ||
  Calculate atomic Hamiltonians:           145.344   145.344   4.8% |-|
  Communicate:                               0.027     0.027   0.0% |
  Poisson:                                   4.874     4.874   0.2% |
  XC 3D grid:                              573.849   573.849  19.0% |-------|
 Orthonormalize:                             4.522     0.014   0.0% |
  calc_s_matrix:                             0.713     0.713   0.0% |
  inverse-cholesky:                          0.038     0.038   0.0% |
  projections:                               3.106     3.106   0.1% |
  rotate_psi_s:                              0.651     0.651   0.0% |
Set symmetry:                                0.002     0.002   0.0% |
Other:                                      77.320    77.320   2.6% ||
-------------------------------------------------------------------
Total:                                              3019.631 100.0%

Date: Thu Jul  1 17:41:32 2021
