59
Lattice="25.874299999999998 0.0 0.0 0.0 14.6439 0.0 0.0 0.0 13.321200000000001" Properties=species:S:1:pos:R:3:forces:R:3:magmoms:R:1 energy=-342.0218161168643 dipole="0.004132375551309608 1.0500294161343964 0.4669503887975735" magmom=0.0 free_energy=-342.0218161168643 pbc="F F F"
H       13.90086013       4.35955812       7.75507437       0.00605838       0.01908921      -0.00980342       0.00000000
H       16.74773537      10.74173378       7.62741982       0.01736762      -0.00703243       0.00376192       0.00000000
H       18.40255565      10.30385142       7.34914507      -0.01147697      -0.02918795       0.00892954       0.00000000
H       21.92974723       6.90626064       7.65010126      -0.00775187      -0.02384783       0.01480802       0.00000000
H       20.40371230       7.32394062       8.47390854      -0.00038260      -0.00945394      -0.00072103       0.00000000
H       21.02894071       5.64522729       8.54533844       0.01340195       0.00706712      -0.00423336       0.00000000
H       20.23465774       4.87860129       4.91266534       0.00735541       0.00241404      -0.01245952       0.00000000
H       21.82937073       5.43048861       5.50423270      -0.01560462      -0.01965839       0.00412762       0.00000000
H       20.92230091       4.17740065       6.40285528       0.01646940      -0.00182994       0.00234185       0.00000000
H        4.62521825       8.91706934       5.23120804       0.00759369      -0.01500542      -0.00479748       0.00000000
H        4.39833863       7.20163762       4.83851657       0.01008847       0.00823085      -0.00066840       0.00000000
H        5.28615539       8.35744450       7.54204871      -0.01047333       0.01049953       0.01688530       0.00000000
H        3.94017521       7.23407015       7.25179383       0.01343235       0.00656870      -0.01152339       0.00000000
H        7.01905066       8.72796503       5.05712597       0.00739907      -0.02462030       0.02018338       0.00000000
H        6.64955993       7.31954272       4.05357059       0.00314880      -0.00737335      -0.00572230       0.00000000
H        5.52206884       5.45150012       6.54575890      -0.02030603      -0.01392966      -0.00444211       0.00000000
H        6.26247134       6.09854184       8.02797877       0.01064631       0.02113755      -0.00150475       0.00000000
H       20.02153739       7.10621394       6.03066063       0.00173425      -0.02228553       0.01010546       0.00000000
H        7.87322864       7.35955107       6.72164553       0.01282603      -0.01554528      -0.00771030       0.00000000
H       10.83655210       4.01002783       8.05649001      -0.01591204       0.02787592       0.00642000       0.00000000
H        9.96398689       4.80565290       9.41424245      -0.01095398      -0.00594257      -0.02645618       0.00000000
H       13.85306493       8.56560181       5.55734030       0.01090929       0.01372707      -0.00792668       0.00000000
H       13.72242006       6.83935300       5.10949310      -0.00337126       0.00560998      -0.00533485       0.00000000
H       12.47809700       7.99460594       4.55473089      -0.01116370      -0.00289942       0.00988098       0.00000000
H       13.31064097       8.07311906       8.47377835       0.02352699       0.01674010       0.01679028       0.00000000
H       10.38016707       7.04157538       8.38779823       0.01227923      -0.00243841      -0.00341540       0.00000000
H       11.89587190       5.42622304       6.25589300      -0.01068060       0.00476974       0.02188230       0.00000000
O        9.70065966       3.94840197       5.26342689       0.00375948      -0.02459741       0.01022866       0.00000000
F       11.62683374       8.65474647       6.96118948       0.04352114      -0.00167840      -0.01777410       0.00000000
N       18.11685369       7.88799538       7.16911921       0.01044413       0.01558756       0.02100557       0.00000000
N       15.95589385       4.85345302       7.41293827      -0.00326948       0.00381233       0.01006131       0.00000000
N       15.78884881       8.46043170       7.61208013       0.02076142      -0.00585912      -0.01375953       0.00000000
O       18.83446053       5.68408691       6.97109119       0.04294315       0.00470039      -0.02261151       0.00000000
O       12.29190342       6.25351120       8.70576403      -0.02421823      -0.01849098      -0.00529486       0.00000000
O        7.76861712       5.67454360       5.49305122       0.02097094      -0.00079772       0.00866563       0.00000000
O        9.03796032       5.00488164       7.59414081      -0.01060582       0.03161094       0.02238816       0.00000000
O       10.17163291       6.49596514       5.78833543       0.00943466       0.01488603      -0.00539490       0.00000000
C       17.08327182       8.75115069       7.35987809       0.01929950       0.00916286      -0.02293044       0.00000000
C       17.85735677       6.57643079       7.18019061       0.03279519       0.00894291       0.00147671       0.00000000
C       14.67933682       5.11087519       7.63836365       0.00037356       0.00416955       0.01598674       0.00000000
C       16.54571362       6.11098769       7.39578856      -0.00972888       0.00300321      -0.01327455       0.00000000
C       15.60156057       7.12695389       7.61300137      -0.01201917       0.01355387      -0.00372756       0.00000000
N       17.40966059      10.08244540       7.19428260       0.02831631      -0.01186608       0.03096709       0.00000000
N       14.40275154       6.46712485       7.78582942      -0.02984912       0.00485055       0.01970220       0.00000000
C       20.92211481       6.53724128       7.90594598       0.00102937      -0.00825723       0.00210405       0.00000000
C       20.82312080       5.10448247       5.81501733      -0.00631492      -0.01477860       0.00166196       0.00000000
C        5.01274368       7.90482749       5.42763888      -0.01091924      -0.00770180       0.01987743       0.00000000
C        4.95081128       7.51311084       6.91284717       0.00072928       0.01695065       0.00596589       0.00000000
C        6.50398831       7.75363695       5.05438675      -0.02258043      -0.01097475      -0.00390836       0.00000000
C        5.95143598       6.35936237       7.00488414      -0.02212489      -0.00230658       0.00329852       0.00000000
C       20.16058820       6.19427850       6.63600362       0.03018002      -0.01108253       0.00057028       0.00000000
C        7.11667978       6.82228614       6.12796649      -0.00083087      -0.00500690      -0.00860676       0.00000000
C       10.26047543       4.90457541       8.35870352      -0.00835594       0.01679310      -0.00152587       0.00000000
C       13.14934276       7.73752454       5.38842507       0.00282338       0.00077601       0.01160497       0.00000000
C       13.12538777       7.12144272       7.94451286      -0.03248879       0.02181238      -0.01477599       0.00000000
C       11.01762511       6.18751231       8.08052035      -0.01494555      -0.01197042       0.01237335       0.00000000
C       11.34272089       6.32705002       6.59563856      -0.02361444      -0.01161722       0.02153368       0.00000000
C       12.33738149       7.48261010       6.63017407      -0.02060663      -0.02232182       0.01008579       0.00000000
P        9.20163281       5.15917180       5.96125389       0.02168061      -0.01839791      -0.00142016       0.00000000
