
  ___ ___ ___ _ _ _  
 |   |   |_  | | | | 
 | | | | | . | | | | 
 |__ |  _|___|_____|  21.6.0
 |___|_|             

User:   hanguo02@comput130.ghddi.org
Date:   Sun Jul  4 09:57:29 2021
Arch:   x86_64
Pid:    250257
Python: 3.6.8
gpaw:   /home/hanguo02/.local/lib/python3.6/site-packages/gpaw
_gpaw:  /home/hanguo02/.local/lib/python3.6/site-packages/
        _gpaw.cpython-36m-x86_64-linux-gnu.so
ase:    /home/hanguo02/.local/lib/python3.6/site-packages/ase (version 3.22.0)
numpy:  /usr/lib64/python3.6/site-packages/numpy (version 1.16.2)
scipy:  /usr/lib64/python3.6/site-packages/scipy (version 1.2.1)
libxc:  4.2.0
units:  Angstrom and eV
cores: 32
OpenMP: False
OMP_NUM_THREADS: 1

Input parameters:
  mode: {ecut: 400.0,
         gammacentered: False,
         name: pw}
  xc: PBE

System changes: positions, numbers, cell, pbc, initial_charges, initial_magmoms 

Initialize ...

H-setup:
  name: Hydrogen
  id: d65de229564ff8ea4db303e23b6d1ecf
  Z: 1.0
  valence: 1
  core: 0
  charge: 0.0
  file: /home/hanguo02/Software/GPAW/gpaw-setups-0.9.20000/H.PBE.gz
  compensation charges: gauss, rc=0.15, lmax=2
  cutoffs: 0.85(filt), 0.53(core),
  valence states:
                energy  radius
    1s(1.00)    -6.494   0.476
    *s          20.717   0.476
    *p           0.000   0.476

  Using partial waves for H as LCAO basis

O-setup:
  name: Oxygen
  id: 32ecd46bf208036f09c70b0ec9a88b78
  Z: 8.0
  valence: 6
  core: 2
  charge: 0.0
  file: /home/hanguo02/Software/GPAW/gpaw-setups-0.9.20000/O.PBE.gz
  compensation charges: gauss, rc=0.21, lmax=2
  cutoffs: 1.17(filt), 0.83(core),
  valence states:
                energy  radius
    2s(2.00)   -23.961   0.688
    2p(4.00)    -9.029   0.598
    *s           3.251   0.688
    *p          18.182   0.598
    *d           0.000   0.619

  Using partial waves for O as LCAO basis

F-setup:
  name: Fluorine
  id: 9cd46ba2a61e170ad72278be75b55cc0
  Z: 9.0
  valence: 7
  core: 2
  charge: 0.0
  file: /home/hanguo02/Software/GPAW/gpaw-setups-0.9.20000/F.PBE.gz
  compensation charges: gauss, rc=0.20, lmax=2
  cutoffs: 1.14(filt), 0.74(core),
  valence states:
                energy  radius
    2s(2.00)   -29.898   0.635
    2p(5.00)   -11.110   0.635
    *s          -2.687   0.635
    *p          16.102   0.635
    *d           0.000   0.635

  Using partial waves for F as LCAO basis

N-setup:
  name: Nitrogen
  id: f7500608b86eaa90eef8b1d9a670dc53
  Z: 7.0
  valence: 5
  core: 2
  charge: 0.0
  file: /home/hanguo02/Software/GPAW/gpaw-setups-0.9.20000/N.PBE.gz
  compensation charges: gauss, rc=0.18, lmax=2
  cutoffs: 1.11(filt), 0.96(core),
  valence states:
                energy  radius
    2s(2.00)   -18.583   0.603
    2p(3.00)    -7.089   0.529
    *s           8.629   0.603
    *p          20.123   0.529
    *d           0.000   0.577

  Using partial waves for N as LCAO basis

C-setup:
  name: Carbon
  id: 4aa54d4b901d75f77cc0ea3eec22967b
  Z: 6.0
  valence: 4
  core: 2
  charge: 0.0
  file: /home/hanguo02/Software/GPAW/gpaw-setups-0.9.20000/C.PBE.gz
  compensation charges: gauss, rc=0.20, lmax=2
  cutoffs: 1.14(filt), 1.14(core),
  valence states:
                energy  radius
    2s(2.00)   -13.751   0.635
    2p(2.00)    -5.284   0.635
    *s          13.461   0.635
    *p          21.927   0.635
    *d           0.000   0.635

  Using partial waves for C as LCAO basis

P-setup:
  name: Phosphorus
  id: 03b4a34d18bb161274a4ee27145ba70a
  Z: 15.0
  valence: 5
  core: 10
  charge: 0.0
  file: /home/hanguo02/Software/GPAW/gpaw-setups-0.9.20000/P.PBE.gz
  compensation charges: gauss, rc=0.30, lmax=2
  cutoffs: 1.69(filt), 1.81(core),
  valence states:
                energy  radius
    3s(2.00)   -13.968   0.953
    3p(3.00)    -5.506   0.953
    *s          13.244   0.953
    *p          21.705   0.953
    *d           0.000   0.953

  Using partial waves for P as LCAO basis

Reference energy: -51532.884347

Spin-paired calculation

Convergence criteria:
  Maximum total energy change: 0.0005 eV / electron
  Maximum integral of absolute density change: 0.0001 electrons
  Maximum integral of absolute eigenstate change: 4e-08 eV^2
  Maximum number of iterations: 333

Symmetries present (total): 1

  ( 1  0  0)
  ( 0  1  0)
  ( 0  0  1)

1 k-point (Gamma)
1 k-point in the irreducible part of the Brillouin zone
       k-points in crystal coordinates                weights
   0:     0.00000000    0.00000000    0.00000000          1/1

Wave functions: Plane wave expansion
  Cutoff energy: 400.000 eV
  Number of coefficients: 91737 (reduced to 45869)
  Pulay-stress correction: 0.000000 eV/Ang^3 (de/decut=0.000000)
  Using Numpy's FFT
  ScaLapack parameters: grid=1x1, blocksize=None
  Wavefunction extrapolation:
    Improved wavefunction reuse through dual PAW basis 

Occupation numbers: width=0.000 eV 

Eigensolver
   Davidson(niter=2) 

Densities:
  Coarse grid: 120*70*63 grid
  Fine grid: 240*140*126 grid
  Total Charge: 0.000000 

Density mixing:
  Method: separate
  Backend: pulay
  Linear mixing parameter: 0.05
  Mixing with 5 old densities
  Damping of long wave oscillations: 50 

Hamiltonian:
  XC and Coulomb potentials evaluated on a 240*140*126 grid
  Using the PBE Exchange-Correlation functional
 

XC parameters: PBE with 2 nearest neighbor stencil

Memory estimate:
  Process memory now: 1062.67 MiB
  Calculator: 183.08 MiB
    Density: 11.51 MiB
      Arrays: 3.29 MiB
      Localized functions: 6.89 MiB
      Mixer: 1.32 MiB
    Hamiltonian: 2.37 MiB
      Arrays: 2.15 MiB
      XC: 0.00 MiB
      Poisson: 0.00 MiB
      vbar: 0.22 MiB
    Wavefunctions: 169.21 MiB
      Arrays psit_nG: 76.99 MiB
      Eigensolver: 81.42 MiB
      Projections: 0.01 MiB
      Projectors: 0.40 MiB
      PW-descriptor: 10.38 MiB

Total number of cores used: 32
Domain decomposition: 4 x 4 x 2

Number of atoms: 59
Number of atomic orbitals: 155
Number of bands in calculation: 110
Number of valence electrons: 176
Bands to converge: occupied

... initialized

Initializing position-dependent things.

Density initialized from atomic densities
Creating initial wave functions:
  110 bands from LCAO basis set

          .---------------------------------------------------------------.  
         /|                                                               |  
        / |                                                               |  
       /  |                                                               |  
      /   |                                                               |  
     /    |                                                               |  
    /     |                                                               |  
   /      |                                                               |  
  /       |                                                               |  
 *        |                                      H                        |  
 |        |                            H          N  H  H                 |  
 |        |        H        H  H   O  C      N   C      H                 |  
 |        |    H  C H    H   C  C   C    N  C C  C N     C H              |  
 |        |       H C   H O   H  C    H C  N       O   C                  |  
 |        |       H   CC      O   H H C                                   |  
 |        |     H       O  P           H               HC H               |  
 |        .-----------H-----O-------------------------H-------------------.  
 |       /                                                               /   
 |      /                                                               /    
 |     /                                                               /     
 |    /                                                               /      
 |   /                                                               /       
 |  /                                                               /        
 | /                                                               /         
 |/                                                               /          
 *---------------------------------------------------------------*           

Positions:
   0 H     13.888900    4.367700    7.811000    ( 0.0000,  0.0000,  0.0000)
   1 H     16.692300   10.643900    7.783300    ( 0.0000,  0.0000,  0.0000)
   2 H     18.338100   10.242700    7.450400    ( 0.0000,  0.0000,  0.0000)
   3 H     21.874300    6.932000    7.636800    ( 0.0000,  0.0000,  0.0000)
   4 H     20.347900    7.329900    8.446900    ( 0.0000,  0.0000,  0.0000)
   5 H     20.953500    5.682600    8.507800    ( 0.0000,  0.0000,  0.0000)
   6 H     20.307900    4.912100    4.876700    ( 0.0000,  0.0000,  0.0000)
   7 H     21.856800    5.519400    5.503100    ( 0.0000,  0.0000,  0.0000)
   8 H     20.963700    4.242000    6.364000    ( 0.0000,  0.0000,  0.0000)
   9 H      4.645200    8.933000    5.299300    ( 0.0000,  0.0000,  0.0000)
  10 H      4.430500    7.240100    4.827700    ( 0.0000,  0.0000,  0.0000)
  11 H      5.319800    8.299900    7.547300    ( 0.0000,  0.0000,  0.0000)
  12 H      4.000000    7.161300    7.206000    ( 0.0000,  0.0000,  0.0000)
  13 H      6.981500    8.789100    5.107200    ( 0.0000,  0.0000,  0.0000)
  14 H      6.606900    7.465600    4.000000    ( 0.0000,  0.0000,  0.0000)
  15 H      5.573800    5.427800    6.516300    ( 0.0000,  0.0000,  0.0000)
  16 H      6.341500    6.125900    7.944100    ( 0.0000,  0.0000,  0.0000)
  17 H     20.012100    7.115000    5.941800    ( 0.0000,  0.0000,  0.0000)
  18 H      7.876500    7.408200    6.653100    ( 0.0000,  0.0000,  0.0000)
  19 H     10.723100    4.000000    7.970100    ( 0.0000,  0.0000,  0.0000)
  20 H      9.902800    4.778500    9.321200    ( 0.0000,  0.0000,  0.0000)
  21 H     13.699700    8.661600    5.540200    ( 0.0000,  0.0000,  0.0000)
  22 H     13.625200    6.947200    5.061900    ( 0.0000,  0.0000,  0.0000)
  23 H     12.329900    8.069000    4.617200    ( 0.0000,  0.0000,  0.0000)
  24 H     13.280000    7.985600    8.592000    ( 0.0000,  0.0000,  0.0000)
  25 H     10.398800    7.011500    8.425600    ( 0.0000,  0.0000,  0.0000)
  26 H     11.875000    5.453900    6.216600    ( 0.0000,  0.0000,  0.0000)
  27 O      9.734700    4.027300    5.203700    ( 0.0000,  0.0000,  0.0000)
  28 F     11.563600    8.623000    7.006400    ( 0.0000,  0.0000,  0.0000)
  29 N     18.060600    7.914500    7.077700    ( 0.0000,  0.0000,  0.0000)
  30 N     15.915800    4.891600    7.410700    ( 0.0000,  0.0000,  0.0000)
  31 N     15.762200    8.454300    7.508900    ( 0.0000,  0.0000,  0.0000)
  32 O     18.828000    5.668900    6.908600    ( 0.0000,  0.0000,  0.0000)
  33 O     12.264300    6.191900    8.733900    ( 0.0000,  0.0000,  0.0000)
  34 O      7.766700    5.772200    5.379700    ( 0.0000,  0.0000,  0.0000)
  35 O      8.979200    5.017300    7.496900    ( 0.0000,  0.0000,  0.0000)
  36 O     10.158500    6.514000    5.846700    ( 0.0000,  0.0000,  0.0000)
  37 C     17.043500    8.769500    7.265800    ( 0.0000,  0.0000,  0.0000)
  38 C     17.808300    6.579800    7.097200    ( 0.0000,  0.0000,  0.0000)
  39 C     14.645600    5.128500    7.662200    ( 0.0000,  0.0000,  0.0000)
  40 C     16.505500    6.135100    7.329300    ( 0.0000,  0.0000,  0.0000)
  41 C     15.562700    7.128700    7.524800    ( 0.0000,  0.0000,  0.0000)
  42 N     17.357900   10.112700    7.240400    ( 0.0000,  0.0000,  0.0000)
  43 N     14.379500    6.469600    7.720200    ( 0.0000,  0.0000,  0.0000)
  44 C     20.868300    6.564100    7.862600    ( 0.0000,  0.0000,  0.0000)
  45 C     20.859800    5.168800    5.787700    ( 0.0000,  0.0000,  0.0000)
  46 C      5.035200    7.920600    5.438900    ( 0.0000,  0.0000,  0.0000)
  47 C      4.997700    7.481400    6.892900    ( 0.0000,  0.0000,  0.0000)
  48 C      6.503600    7.804600    5.036100    ( 0.0000,  0.0000,  0.0000)
  49 C      6.007000    6.348400    6.926200    ( 0.0000,  0.0000,  0.0000)
  50 C     20.104100    6.230100    6.584000    ( 0.0000,  0.0000,  0.0000)
  51 C      7.149500    6.852600    6.048900    ( 0.0000,  0.0000,  0.0000)
  52 C     10.173300    4.899900    8.267600    ( 0.0000,  0.0000,  0.0000)
  53 C     13.036500    7.800800    5.410700    ( 0.0000,  0.0000,  0.0000)
  54 C     13.104800    7.111300    7.954800    ( 0.0000,  0.0000,  0.0000)
  55 C     11.000100    6.161600    8.072100    ( 0.0000,  0.0000,  0.0000)
  56 C     11.335700    6.330000    6.602400    ( 0.0000,  0.0000,  0.0000)
  57 C     12.292000    7.500400    6.695500    ( 0.0000,  0.0000,  0.0000)
  58 P      9.178400    5.223300    5.904200    ( 0.0000,  0.0000,  0.0000)

Unit cell:
           periodic     x           y           z      points  spacing
  1. axis:    no    25.874300    0.000000    0.000000   120     0.2156
  2. axis:    no     0.000000   14.643900    0.000000    70     0.2092
  3. axis:    no     0.000000    0.000000   13.321200    63     0.2114

  Lengths:  25.874300  14.643900  13.321200
  Angles:   90.000000  90.000000  90.000000

Effective grid spacing dv^(1/3) = 0.2121

                     log10-error:    total        iterations:
           time      wfs    density  energy       poisson
iter:   1  09:58:23                -366.143537           
iter:   2  09:58:59  -0.95  -0.73  -362.614884           
iter:   3  09:59:35  -0.63  -0.75  -343.608171           
iter:   4  10:00:12  -1.73  -1.08  -343.093162           
iter:   5  10:00:48  -1.38  -1.14  -342.524660           
iter:   6  10:01:24  -1.21  -1.45  -342.800892           
iter:   7  10:01:59  -2.21  -1.49  -341.746615           
iter:   8  10:02:35  -1.99  -1.70  -341.427944           
iter:   9  10:03:10  -3.60  -2.19  -341.403187           
iter:  10  10:03:46  -2.69  -2.26  -341.440399           
iter:  11  10:04:23  -3.07  -2.19  -341.388147           
iter:  12  10:04:58  -4.32  -2.80  -341.387960           
iter:  13  10:05:35  -4.52  -2.80  -341.387117           
iter:  14  10:06:12  -4.22  -2.87  -341.387628           
iter:  15  10:06:48  -4.84  -2.99  -341.386568           
iter:  16  10:07:25  -5.34  -3.19  -341.386434           
iter:  17  10:08:01  -5.33  -3.26  -341.386504           
iter:  18  10:08:37  -5.63  -3.47  -341.386527           
iter:  19  10:09:13  -6.02  -3.51  -341.386500           
iter:  20  10:09:50  -6.60  -3.68  -341.386503           
iter:  21  10:10:27  -6.83  -3.70  -341.386493           
iter:  22  10:11:03  -6.54  -3.79  -341.386493           
iter:  23  10:11:38  -6.95  -3.97  -341.386489           
iter:  24  10:12:14  -7.47  -4.16  -341.386490           

Converged after 24 iterations.

Dipole moment: (-0.113919, 1.008795, 0.549535) |e|*Ang

Energy contributions relative to reference atoms: (reference = -51532.884347)

Kinetic:       +247.117849
Potential:     -246.863992
External:        +0.000000
XC:            -341.013437
Entropy (-ST):   +0.000000
Local:           -0.626909
--------------------------
Free energy:   -341.386490
Extrapolated:  -341.386490

 Band  Eigenvalues  Occupancy
    0    -30.30984    2.00000
    1    -27.74101    2.00000
    2    -26.82093    2.00000
    3    -26.62846    2.00000
    4    -26.33022    2.00000
    5    -26.07917    2.00000
    6    -25.72866    2.00000
    7    -24.50089    2.00000
    8    -23.58881    2.00000
    9    -22.37143    2.00000
   10    -22.16427    2.00000
   11    -21.55923    2.00000
   12    -20.59945    2.00000
   13    -20.06837    2.00000
   14    -19.25908    2.00000
   15    -19.15016    2.00000
   16    -18.26225    2.00000
   17    -17.48127    2.00000
   18    -17.37761    2.00000
   19    -17.29400    2.00000
   20    -17.20874    2.00000
   21    -16.43586    2.00000
   22    -16.27633    2.00000
   23    -15.81586    2.00000
   24    -15.31660    2.00000
   25    -15.12283    2.00000
   26    -14.56558    2.00000
   27    -14.31774    2.00000
   28    -14.08348    2.00000
   29    -13.90636    2.00000
   30    -13.69124    2.00000
   31    -13.50173    2.00000
   32    -13.22827    2.00000
   33    -13.11796    2.00000
   34    -12.80750    2.00000
   35    -12.75820    2.00000
   36    -12.30065    2.00000
   37    -12.10896    2.00000
   38    -11.84448    2.00000
   39    -11.73424    2.00000
   40    -11.58890    2.00000
   41    -11.38024    2.00000
   42    -11.16918    2.00000
   43    -11.04383    2.00000
   44    -10.93500    2.00000
   45    -10.86604    2.00000
   46    -10.77146    2.00000
   47    -10.55389    2.00000
   48    -10.40523    2.00000
   49    -10.32238    2.00000
   50    -10.19484    2.00000
   51     -9.91245    2.00000
   52     -9.83194    2.00000
   53     -9.72890    2.00000
   54     -9.56437    2.00000
   55     -9.51595    2.00000
   56     -9.48479    2.00000
   57     -9.31415    2.00000
   58     -9.14415    2.00000
   59     -9.05144    2.00000
   60     -8.96980    2.00000
   61     -8.86121    2.00000
   62     -8.79774    2.00000
   63     -8.74350    2.00000
   64     -8.47521    2.00000
   65     -8.35116    2.00000
   66     -8.23465    2.00000
   67     -7.91501    2.00000
   68     -7.79770    2.00000
   69     -7.79147    2.00000
   70     -7.69053    2.00000
   71     -7.64596    2.00000
   72     -7.48602    2.00000
   73     -7.43354    2.00000
   74     -7.40349    2.00000
   75     -7.25997    2.00000
   76     -7.21393    2.00000
   77     -6.90094    2.00000
   78     -6.84072    2.00000
   79     -6.63750    2.00000
   80     -6.57775    2.00000
   81     -6.44685    2.00000
   82     -6.20350    2.00000
   83     -6.03268    2.00000
   84     -5.95173    2.00000
   85     -5.78275    2.00000
   86     -5.32306    2.00000
   87     -4.67337    2.00000
   88     -1.13269    0.00000
   89     -0.35658    0.00000
   90     -0.26154    0.00000
   91     -0.19448    0.00000
   92     -0.03221    0.00000
   93      0.05906    0.00000
   94      0.28297    0.00000
   95      0.35139    0.00000
   96      0.42519    0.00000
   97      0.46994    0.00000
   98      0.58468    0.00000
   99      0.68956    0.00000
  100      0.73898    0.00000
  101      0.77340    0.00000
  102      0.78580    0.00000
  103      0.81534    0.00000
  104      0.89573    0.00000
  105      0.95778    0.00000
  106      1.02124    0.00000
  107      1.09185    0.00000
  108      1.17690    0.00000
  109      1.26107    0.00000

Fermi level: -2.90303

Gap: 3.541 eV
Transition (v -> c):
  (s=0, k=0, n=87, [0.00, 0.00, 0.00]) -> (s=0, k=0, n=88, [0.00, 0.00, 0.00])

Forces in eV/Ang:
  0 H    -0.13876   -0.02553    0.04003
  1 H    -0.38907    0.73818    0.47564
  2 H     0.76930    0.47649    0.23804
  3 H     0.20580    0.05919   -0.09294
  4 H    -0.09717    0.23248    0.04080
  5 H     0.06746   -0.27855    0.00418
  6 H    -0.06857   -0.00808   -0.23626
  7 H     0.16639    0.13808   -0.00396
  8 H     0.08120   -0.13475    0.18350
  9 H    -0.15762    0.20002   -0.12970
 10 H    -0.20906   -0.11972   -0.09794
 11 H     0.03288    0.19985    0.19778
 12 H    -0.23588    0.00327    0.19003
 13 H     0.17735    0.14143   -0.09568
 14 H     0.21833   -0.16362   -0.10607
 15 H     0.00219   -0.14016   -0.24471
 16 H     0.12367   -0.18119    0.19897
 17 H    -0.33670    0.22444    0.11503
 18 H     0.24058   -0.02800    0.09406
 19 H     0.23260   -0.22211   -0.16461
 20 H    -0.33205   -0.03135    0.15977
 21 H     0.22560    0.09700    0.12641
 22 H     0.13538   -0.18951   -0.00179
 23 H    -0.28724   -0.08923   -0.01960
 24 H     0.11382    0.40298   -0.16517
 25 H    -0.25237    0.24278   -0.12784
 26 H     0.22348   -0.25795    0.03909
 27 O    -0.58772    0.24525    0.14880
 28 F    -0.43441    0.91964    0.30560
 29 N     0.88809   -1.38541   -0.35682
 30 N     0.53129   -1.09113    0.00635
 31 N    -0.74598    0.25693    0.06849
 32 O    -1.55051    1.19821    0.27814
 33 O     0.42631    0.19052   -0.89654
 34 O     1.22131   -0.97947   -0.46741
 35 O    -0.52780    0.13726    0.56872
 36 O    -0.05667    1.09586   -0.44803
 37 C    -0.41831   -0.22978    0.40089
 38 C     1.21748    0.43378   -0.14325
 39 C     0.48369   -0.40648   -0.32951
 40 C     0.27536   -0.83182   -0.07626
 41 C     0.05788    1.00761   -0.07862
 42 N    -0.22767   -0.88838   -0.96857
 43 N    -1.17052    0.68950    0.37022
 44 C    -0.34930    0.19829    0.03282
 45 C    -0.46964   -0.14389   -0.01475
 46 C    -0.18050    0.15776   -0.10470
 47 C    -0.19498   -0.15463   -0.08523
 48 C    -0.07463    0.48482   -0.11085
 49 C     0.02008    0.18983    0.61695
 50 C     1.41471   -0.45883    0.04883
 51 C    -0.86156    0.48122    0.28278
 52 C     0.62375   -0.12552    0.60015
 53 C     0.23381    0.12417    0.11596
 54 C    -0.31979   -0.60744    0.84492
 55 C    -0.06130   -0.48714    0.12297
 56 C    -0.18886   -0.00850    0.71010
 57 C     0.49130   -0.29564   -1.33469
 58 P     0.26607   -1.16546   -0.84495

System changes: positions 

Initializing position-dependent things.

Density initialized from wave functions
          .---------------------------------------------------------------.  
         /|                                                               |  
        / |                                                               |  
       /  |                                                               |  
      /   |                                                               |  
     /    |                                                               |  
    /     |                                                               |  
   /      |                                                               |  
  /       |                                                               |  
 *        |                                      H                        |  
 |        |                            H          N  H  H                 |  
 |        |        H        H  H   O  C      N   C      H                 |  
 |        |    H  C H    H   C  C   C    N  C C  C N     C H              |  
 |        |       H C   H O   H  C    H C  N       O   C                  |  
 |        |       H   CC      O   H H C                                   |  
 |        |     H       O  P           H               HC H               |  
 |        .-----------H-----O-------------------------H-------------------.  
 |       /                                                               /   
 |      /                                                               /    
 |     /                                                               /     
 |    /                                                               /      
 |   /                                                               /       
 |  /                                                               /        
 | /                                                               /         
 |/                                                               /          
 *---------------------------------------------------------------*           

Positions:
   0 H     13.886918    4.367335    7.811572    ( 0.0000,  0.0000,  0.0000)
   1 H     16.686742   10.654445    7.790095    ( 0.0000,  0.0000,  0.0000)
   2 H     18.349090   10.249507    7.453801    ( 0.0000,  0.0000,  0.0000)
   3 H     21.877240    6.932846    7.635472    ( 0.0000,  0.0000,  0.0000)
   4 H     20.346512    7.333221    8.447483    ( 0.0000,  0.0000,  0.0000)
   5 H     20.954464    5.678621    8.507860    ( 0.0000,  0.0000,  0.0000)
   6 H     20.306920    4.911985    4.873325    ( 0.0000,  0.0000,  0.0000)
   7 H     21.859177    5.521373    5.503043    ( 0.0000,  0.0000,  0.0000)
   8 H     20.964860    4.240075    6.366621    ( 0.0000,  0.0000,  0.0000)
   9 H      4.642948    8.935857    5.297447    ( 0.0000,  0.0000,  0.0000)
  10 H      4.427513    7.238390    4.826301    ( 0.0000,  0.0000,  0.0000)
  11 H      5.320270    8.302755    7.550125    ( 0.0000,  0.0000,  0.0000)
  12 H      3.996630    7.161347    7.208715    ( 0.0000,  0.0000,  0.0000)
  13 H      6.984034    8.791120    5.105833    ( 0.0000,  0.0000,  0.0000)
  14 H      6.610019    7.463263    3.998485    ( 0.0000,  0.0000,  0.0000)
  15 H      5.573831    5.425798    6.512804    ( 0.0000,  0.0000,  0.0000)
  16 H      6.343267    6.123312    7.946942    ( 0.0000,  0.0000,  0.0000)
  17 H     20.007290    7.118206    5.943443    ( 0.0000,  0.0000,  0.0000)
  18 H      7.879937    7.407800    6.654444    ( 0.0000,  0.0000,  0.0000)
  19 H     10.726423    3.996827    7.967748    ( 0.0000,  0.0000,  0.0000)
  20 H      9.898056    4.778052    9.323482    ( 0.0000,  0.0000,  0.0000)
  21 H     13.702923    8.662986    5.542006    ( 0.0000,  0.0000,  0.0000)
  22 H     13.627134    6.944493    5.061874    ( 0.0000,  0.0000,  0.0000)
  23 H     12.325797    8.067725    4.616920    ( 0.0000,  0.0000,  0.0000)
  24 H     13.281626    7.991357    8.589640    ( 0.0000,  0.0000,  0.0000)
  25 H     10.395195    7.014968    8.423774    ( 0.0000,  0.0000,  0.0000)
  26 H     11.878193    5.450215    6.217158    ( 0.0000,  0.0000,  0.0000)
  27 O      9.726304    4.030804    5.205826    ( 0.0000,  0.0000,  0.0000)
  28 F     11.557394    8.636138    7.010766    ( 0.0000,  0.0000,  0.0000)
  29 N     18.073287    7.894708    7.072603    ( 0.0000,  0.0000,  0.0000)
  30 N     15.923390    4.876012    7.410791    ( 0.0000,  0.0000,  0.0000)
  31 N     15.751543    8.457970    7.509878    ( 0.0000,  0.0000,  0.0000)
  32 O     18.805850    5.686017    6.912573    ( 0.0000,  0.0000,  0.0000)
  33 O     12.270390    6.194622    8.721092    ( 0.0000,  0.0000,  0.0000)
  34 O      7.784147    5.758208    5.373023    ( 0.0000,  0.0000,  0.0000)
  35 O      8.971660    5.019261    7.505025    ( 0.0000,  0.0000,  0.0000)
  36 O     10.157690    6.529655    5.840300    ( 0.0000,  0.0000,  0.0000)
  37 C     17.037524    8.766217    7.271527    ( 0.0000,  0.0000,  0.0000)
  38 C     17.825693    6.585997    7.095154    ( 0.0000,  0.0000,  0.0000)
  39 C     14.652510    5.122693    7.657493    ( 0.0000,  0.0000,  0.0000)
  40 C     16.509434    6.123217    7.328211    ( 0.0000,  0.0000,  0.0000)
  41 C     15.563527    7.143094    7.523677    ( 0.0000,  0.0000,  0.0000)
  42 N     17.354648   10.100009    7.226563    ( 0.0000,  0.0000,  0.0000)
  43 N     14.362778    6.479450    7.725489    ( 0.0000,  0.0000,  0.0000)
  44 C     20.863310    6.566933    7.863069    ( 0.0000,  0.0000,  0.0000)
  45 C     20.853091    5.166744    5.787489    ( 0.0000,  0.0000,  0.0000)
  46 C      5.032621    7.922854    5.437404    ( 0.0000,  0.0000,  0.0000)
  47 C      4.994915    7.479191    6.891682    ( 0.0000,  0.0000,  0.0000)
  48 C      6.502534    7.811526    5.034516    ( 0.0000,  0.0000,  0.0000)
  49 C      6.007287    6.351112    6.935014    ( 0.0000,  0.0000,  0.0000)
  50 C     20.124310    6.223545    6.584698    ( 0.0000,  0.0000,  0.0000)
  51 C      7.137192    6.859475    6.052940    ( 0.0000,  0.0000,  0.0000)
  52 C     10.182211    4.898107    8.276174    ( 0.0000,  0.0000,  0.0000)
  53 C     13.039840    7.802574    5.412357    ( 0.0000,  0.0000,  0.0000)
  54 C     13.100232    7.102622    7.966870    ( 0.0000,  0.0000,  0.0000)
  55 C     10.999224    6.154641    8.073857    ( 0.0000,  0.0000,  0.0000)
  56 C     11.333002    6.329879    6.612544    ( 0.0000,  0.0000,  0.0000)
  57 C     12.299019    7.496177    6.676433    ( 0.0000,  0.0000,  0.0000)
  58 P      9.182201    5.206651    5.892129    ( 0.0000,  0.0000,  0.0000)

Unit cell:
           periodic     x           y           z      points  spacing
  1. axis:    no    25.874300    0.000000    0.000000   120     0.2156
  2. axis:    no     0.000000   14.643900    0.000000    70     0.2092
  3. axis:    no     0.000000    0.000000   13.321200    63     0.2114

  Lengths:  25.874300  14.643900  13.321200
  Angles:   90.000000  90.000000  90.000000

Effective grid spacing dv^(1/3) = 0.2121

                     log10-error:    total        iterations:
           time      wfs    density  energy       poisson
iter:   1  10:13:22  -1.93         -341.837639           
iter:   2  10:13:59  -3.30  -2.12  -341.807580           
iter:   3  10:14:35  -2.40  -2.14  -341.705611           
iter:   4  10:15:12  -3.93  -2.48  -341.696890           
iter:   5  10:15:48  -3.94  -2.51  -341.693219           
iter:   6  10:16:24  -3.57  -2.64  -341.688032           
iter:   7  10:17:01  -4.29  -2.90  -341.686103           
iter:   8  10:17:36  -5.34  -3.25  -341.686088           
iter:   9  10:18:12  -5.04  -3.37  -341.686185           
iter:  10  10:18:48  -5.02  -3.35  -341.686099           
iter:  11  10:19:24  -5.79  -3.70  -341.686048           
iter:  12  10:19:59  -7.35  -3.81  -341.686046           
iter:  13  10:20:35  -6.27  -3.87  -341.686054           
iter:  14  10:21:12  -6.23  -4.03  -341.686048           
iter:  15  10:21:49  -6.79  -4.21  -341.686045           
iter:  16  10:22:27  -7.61  -4.31  -341.686045           

Converged after 16 iterations.

Dipole moment: (-0.029216, 0.990342, 0.518263) |e|*Ang

Energy contributions relative to reference atoms: (reference = -51532.884347)

Kinetic:       +240.498390
Potential:     -242.283607
External:        +0.000000
XC:            -339.232149
Entropy (-ST):   +0.000000
Local:           -0.668679
--------------------------
Free energy:   -341.686045
Extrapolated:  -341.686045

 Band  Eigenvalues  Occupancy
    0    -29.88136    2.00000
    1    -27.49148    2.00000
    2    -26.86591    2.00000
    3    -26.75825    2.00000
    4    -26.05765    2.00000
    5    -25.79234    2.00000
    6    -25.48476    2.00000
    7    -24.41099    2.00000
    8    -23.85738    2.00000
    9    -22.33275    2.00000
   10    -22.11659    2.00000
   11    -21.60463    2.00000
   12    -20.63270    2.00000
   13    -19.97588    2.00000
   14    -19.27793    2.00000
   15    -19.19139    2.00000
   16    -18.06172    2.00000
   17    -17.42991    2.00000
   18    -17.34614    2.00000
   19    -17.30318    2.00000
   20    -17.11326    2.00000
   21    -16.50592    2.00000
   22    -16.07744    2.00000
   23    -15.63910    2.00000
   24    -15.32012    2.00000
   25    -14.93320    2.00000
   26    -14.49646    2.00000
   27    -14.23569    2.00000
   28    -14.02049    2.00000
   29    -13.81646    2.00000
   30    -13.65115    2.00000
   31    -13.41642    2.00000
   32    -13.07913    2.00000
   33    -12.97282    2.00000
   34    -12.77429    2.00000
   35    -12.62879    2.00000
   36    -12.10998    2.00000
   37    -11.93268    2.00000
   38    -11.80760    2.00000
   39    -11.66881    2.00000
   40    -11.49899    2.00000
   41    -11.26921    2.00000
   42    -11.10573    2.00000
   43    -10.92919    2.00000
   44    -10.88046    2.00000
   45    -10.80338    2.00000
   46    -10.70358    2.00000
   47    -10.43942    2.00000
   48    -10.29097    2.00000
   49    -10.27438    2.00000
   50    -10.04775    2.00000
   51     -9.88223    2.00000
   52     -9.83652    2.00000
   53     -9.63678    2.00000
   54     -9.45667    2.00000
   55     -9.45285    2.00000
   56     -9.35672    2.00000
   57     -9.21825    2.00000
   58     -9.14393    2.00000
   59     -9.06499    2.00000
   60     -8.87931    2.00000
   61     -8.82550    2.00000
   62     -8.79176    2.00000
   63     -8.72174    2.00000
   64     -8.40422    2.00000
   65     -8.34377    2.00000
   66     -8.24082    2.00000
   67     -7.86245    2.00000
   68     -7.84463    2.00000
   69     -7.79474    2.00000
   70     -7.75010    2.00000
   71     -7.69120    2.00000
   72     -7.49230    2.00000
   73     -7.46311    2.00000
   74     -7.38062    2.00000
   75     -7.27491    2.00000
   76     -7.21191    2.00000
   77     -6.90596    2.00000
   78     -6.86574    2.00000
   79     -6.72304    2.00000
   80     -6.65652    2.00000
   81     -6.41124    2.00000
   82     -6.17612    2.00000
   83     -6.09278    2.00000
   84     -5.95558    2.00000
   85     -5.72985    2.00000
   86     -5.31992    2.00000
   87     -4.54860    2.00000
   88     -0.93976    0.00000
   89     -0.36909    0.00000
   90     -0.25208    0.00000
   91     -0.16771    0.00000
   92     -0.04419    0.00000
   93      0.05902    0.00000
   94      0.28822    0.00000
   95      0.32474    0.00000
   96      0.41703    0.00000
   97      0.46234    0.00000
   98      0.58811    0.00000
   99      0.69177    0.00000
  100      0.71361    0.00000
  101      0.76235    0.00000
  102      0.77468    0.00000
  103      0.80315    0.00000
  104      0.87712    0.00000
  105      0.95520    0.00000
  106      1.00168    0.00000
  107      1.05204    0.00000
  108      1.11056    0.00000
  109      1.15177    0.00000

Fermi level: -2.74418

Gap: 3.609 eV
Transition (v -> c):
  (s=0, k=0, n=87, [0.00, 0.00, 0.00]) -> (s=0, k=0, n=88, [0.00, 0.00, 0.00])

Forces in eV/Ang:
  0 H    -0.03188    0.00741    0.01562
  1 H     0.22922    0.11494   -0.13766
  2 H    -0.04284    0.23551    0.00230
  3 H     0.01749    0.00224   -0.01822
  4 H    -0.13920    0.23069    0.01110
  5 H     0.05061   -0.11027   -0.05752
  6 H    -0.10070    0.00146   -0.21168
  7 H    -0.09202    0.02082    0.05188
  8 H     0.06427   -0.10307    0.11610
  9 H    -0.17096    0.17096   -0.11024
 10 H    -0.15393   -0.05401   -0.07018
 11 H    -0.04981    0.05284    0.06507
 12 H    -0.20182    0.00805    0.16613
 13 H     0.19663    0.21061   -0.08901
 14 H     0.19397   -0.10522   -0.00921
 15 H     0.09442    0.06169   -0.10415
 16 H     0.15041   -0.17454    0.29842
 17 H    -0.18152   -0.03124    0.25895
 18 H     0.09776   -0.11419   -0.01497
 19 H     0.20486   -0.18556   -0.10313
 20 H    -0.26043   -0.06014    0.24630
 21 H     0.21729    0.09637    0.12602
 22 H     0.09585   -0.09604    0.01822
 23 H    -0.13168   -0.10655    0.06619
 24 H     0.01845    0.31036   -0.18175
 25 H    -0.11297    0.01861   -0.15095
 26 H     0.05876   -0.07865    0.13989
 27 O     0.10273   -1.02716   -0.56238
 28 F    -0.01483    0.29686   -0.00498
 29 N     0.15649    0.54330   -0.17384
 30 N     0.30015   -0.50611    0.01498
 31 N    -0.16483    0.73316    0.03549
 32 O     0.10760    0.30720   -0.01195
 33 O     0.18250   -0.10361   -0.45819
 34 O     0.24318   -0.28612   -0.29375
 35 O    -0.12696    0.08269    0.32623
 36 O    -0.08832    0.40538   -0.22530
 37 C     0.17270   -0.90975    0.17132
 38 C    -0.41050   -0.26308    0.10375
 39 C     0.01704    0.08162   -0.17314
 40 C     0.11330    0.17139   -0.02190
 41 C    -0.28700   -0.78040   -0.01044
 42 N     0.02988    0.20945   -0.10071
 43 N     0.46147   -0.27442    0.13495
 44 C     0.09025   -0.00979    0.14977
 45 C     0.00886   -0.26891   -0.06326
 46 C    -0.20744    0.09936   -0.12866
 47 C    -0.16686    0.10336    0.11469
 48 C    -0.12440    0.19788   -0.14888
 49 C    -0.15766   -0.11096    0.18290
 50 C     0.29904    0.04060   -0.05414
 51 C    -0.00417   -0.00396    0.04577
 52 C     0.18367   -0.23515    0.27427
 53 C     0.19138    0.08648   -0.29403
 54 C    -0.45759    0.05617    0.28075
 55 C    -0.08716    0.05776    0.16127
 56 C    -0.15668   -0.00937   -0.06153
 57 C    -0.12672    0.07281   -0.12990
 58 P    -0.00075    0.64566    0.50055

System changes: positions 

Initializing position-dependent things.

Density initialized from wave functions
          .---------------------------------------------------------------.  
         /|                                                               |  
        / |                                                               |  
       /  |                                                               |  
      /   |                                                               |  
     /    |                                                               |  
    /     |                                                               |  
   /      |                                                               |  
  /       |                                                               |  
 *        |                                      H                        |  
 |        |                            H          N  H  H                 |  
 |        |        H        H  H   O  C      N   C      H                 |  
 |        |    H  C H    H   C  C   C    N  C C  C N     C H              |  
 |        |       H C   H O   H  C    H C  N       O   C                  |  
 |        |       H   CC      O   H H C                                   |  
 |        |     H       O  P           H               HC H               |  
 |        .-----------H-----O-------------------------H-------------------.  
 |       /                                                               /   
 |      /                                                               /    
 |     /                                                               /     
 |    /                                                               /      
 |   /                                                               /       
 |  /                                                               /        
 | /                                                               /         
 |/                                                               /          
 *---------------------------------------------------------------*           

Positions:
   0 H     13.885928    4.367354    7.811955    ( 0.0000,  0.0000,  0.0000)
   1 H     16.688782   10.658887    7.789756    ( 0.0000,  0.0000,  0.0000)
   2 H     18.351260   10.254812    7.454707    ( 0.0000,  0.0000,  0.0000)
   3 H     21.878258    6.933096    7.634856    ( 0.0000,  0.0000,  0.0000)
   4 H     20.344052    7.337560    8.447800    ( 0.0000,  0.0000,  0.0000)
   5 H     20.955476    5.675934    8.507005    ( 0.0000,  0.0000,  0.0000)
   6 H     20.305147    4.911977    4.869260    ( 0.0000,  0.0000,  0.0000)
   7 H     21.858396    5.522193    5.503813    ( 0.0000,  0.0000,  0.0000)
   8 H     20.966129    4.238023    6.369048    ( 0.0000,  0.0000,  0.0000)
   9 H      4.639787    8.939174    5.295306    ( 0.0000,  0.0000,  0.0000)
  10 H      4.424421    7.237135    4.824881    ( 0.0000,  0.0000,  0.0000)
  11 H      5.319637    8.304286    7.551833    ( 0.0000,  0.0000,  0.0000)
  12 H      3.992716    7.161480    7.211922    ( 0.0000,  0.0000,  0.0000)
  13 H      6.987656    8.794822    5.104137    ( 0.0000,  0.0000,  0.0000)
  14 H      6.613751    7.461073    3.997957    ( 0.0000,  0.0000,  0.0000)
  15 H      5.575267    5.426217    6.510334    ( 0.0000,  0.0000,  0.0000)
  16 H      6.345993    6.120010    7.952182    ( 0.0000,  0.0000,  0.0000)
  17 H     20.003313    7.118556    5.947779    ( 0.0000,  0.0000,  0.0000)
  18 H      7.882296    7.405971    6.654562    ( 0.0000,  0.0000,  0.0000)
  19 H     10.730371    3.993209    7.965587    ( 0.0000,  0.0000,  0.0000)
  20 H      9.892904    4.777028    9.327791    ( 0.0000,  0.0000,  0.0000)
  21 H     13.707034    8.664798    5.544374    ( 0.0000,  0.0000,  0.0000)
  22 H     13.629079    6.942347    5.062143    ( 0.0000,  0.0000,  0.0000)
  23 H     12.322754    8.065788    4.617849    ( 0.0000,  0.0000,  0.0000)
  24 H     13.282322    7.997524    8.586288    ( 0.0000,  0.0000,  0.0000)
  25 H     10.392563    7.016139    8.421024    ( 0.0000,  0.0000,  0.0000)
  26 H     11.879899    5.448081    6.219416    ( 0.0000,  0.0000,  0.0000)
  27 O      9.725704    4.016175    5.197870    ( 0.0000,  0.0000,  0.0000)
  28 F     11.555579    8.643993    7.011810    ( 0.0000,  0.0000,  0.0000)
  29 N     18.078905    7.897846    7.068668    ( 0.0000,  0.0000,  0.0000)
  30 N     15.929873    4.864366    7.411040    ( 0.0000,  0.0000,  0.0000)
  31 N     15.746319    8.469994    7.510666    ( 0.0000,  0.0000,  0.0000)
  32 O     18.801797    5.695050    6.913412    ( 0.0000,  0.0000,  0.0000)
  33 O     12.274710    6.193753    8.710883    ( 0.0000,  0.0000,  0.0000)
  34 O      7.792296    5.750295    5.366870    ( 0.0000,  0.0000,  0.0000)
  35 O      8.967808    5.021014    7.512039    ( 0.0000,  0.0000,  0.0000)
  36 O     10.156148    6.539797    5.835253    ( 0.0000,  0.0000,  0.0000)
  37 C     17.038602    8.751624    7.275585    ( 0.0000,  0.0000,  0.0000)
  38 C     17.823947    6.583609    7.096197    ( 0.0000,  0.0000,  0.0000)
  39 C     14.654539    5.122438    7.653669    ( 0.0000,  0.0000,  0.0000)
  40 C     16.512155    6.122761    7.327600    ( 0.0000,  0.0000,  0.0000)
  41 C     15.559401    7.134989    7.523231    ( 0.0000,  0.0000,  0.0000)
  42 N     17.354265   10.099921    7.221493    ( 0.0000,  0.0000,  0.0000)
  43 N     14.365467    6.477827    7.728885    ( 0.0000,  0.0000,  0.0000)
  44 C     20.863395    6.567511    7.865453    ( 0.0000,  0.0000,  0.0000)
  45 C     20.851505    5.162153    5.786479    ( 0.0000,  0.0000,  0.0000)
  46 C      5.028825    7.924933    5.435076    ( 0.0000,  0.0000,  0.0000)
  47 C      4.991678    7.480187    6.893104    ( 0.0000,  0.0000,  0.0000)
  48 C      6.500380    7.816293    5.031860    ( 0.0000,  0.0000,  0.0000)
  49 C      6.004977    6.350130    6.940038    ( 0.0000,  0.0000,  0.0000)
  50 C     20.134012    6.222478    6.584058    ( 0.0000,  0.0000,  0.0000)
  51 C      7.133973    6.861177    6.054667    ( 0.0000,  0.0000,  0.0000)
  52 C     10.187272    4.894093    8.282518    ( 0.0000,  0.0000,  0.0000)
  53 C     13.043589    7.804336    5.408337    ( 0.0000,  0.0000,  0.0000)
  54 C     13.092143    7.101246    7.974209    ( 0.0000,  0.0000,  0.0000)
  55 C     10.997682    6.153730    8.076745    ( 0.0000,  0.0000,  0.0000)
  56 C     11.329942    6.329706    6.614215    ( 0.0000,  0.0000,  0.0000)
  57 C     12.298903    7.496194    6.669581    ( 0.0000,  0.0000,  0.0000)
  58 P      9.183164    5.212142    5.896601    ( 0.0000,  0.0000,  0.0000)

Unit cell:
           periodic     x           y           z      points  spacing
  1. axis:    no    25.874300    0.000000    0.000000   120     0.2156
  2. axis:    no     0.000000   14.643900    0.000000    70     0.2092
  3. axis:    no     0.000000    0.000000   13.321200    63     0.2114

  Lengths:  25.874300  14.643900  13.321200
  Angles:   90.000000  90.000000  90.000000

Effective grid spacing dv^(1/3) = 0.2121

                     log10-error:    total        iterations:
           time      wfs    density  energy       poisson
iter:   1  10:23:35  -2.42         -341.817283           
iter:   2  10:24:11  -3.78  -2.42  -341.807637           
iter:   3  10:24:47  -2.97  -2.44  -341.775075           
iter:   4  10:25:23  -4.30  -2.73  -341.773395           
iter:   5  10:25:58  -4.57  -2.76  -341.772579           
iter:   6  10:26:34  -4.00  -2.85  -341.769901           
iter:   7  10:27:10  -5.18  -3.10  -341.769228           
iter:   8  10:27:46  -5.35  -3.39  -341.769188           
iter:   9  10:28:21  -6.01  -3.65  -341.769190           
iter:  10  10:28:57  -5.98  -3.62  -341.769167           
iter:  11  10:29:32  -7.20  -3.97  -341.769167           
iter:  12  10:30:07  -7.02  -4.05  -341.769165           
iter:  13  10:30:44  -7.22  -4.15  -341.769166           
iter:  14  10:31:22  -7.98  -4.34  -341.769166           

Converged after 14 iterations.

Dipole moment: (-0.054259, 0.958127, 0.542160) |e|*Ang

Energy contributions relative to reference atoms: (reference = -51532.884347)

Kinetic:       +233.295915
Potential:     -236.974638
External:        +0.000000
XC:            -337.409742
Entropy (-ST):   +0.000000
Local:           -0.680701
--------------------------
Free energy:   -341.769166
Extrapolated:  -341.769166

 Band  Eigenvalues  Occupancy
    0    -29.78786    2.00000
    1    -27.46788    2.00000
    2    -26.99398    2.00000
    3    -26.79413    2.00000
    4    -26.02194    2.00000
    5    -25.78005    2.00000
    6    -25.48348    2.00000
    7    -24.31089    2.00000
    8    -23.61654    2.00000
    9    -22.27290    2.00000
   10    -21.91115    2.00000
   11    -21.54422    2.00000
   12    -20.63710    2.00000
   13    -19.98946    2.00000
   14    -19.33070    2.00000
   15    -19.24012    2.00000
   16    -18.05478    2.00000
   17    -17.43017    2.00000
   18    -17.36154    2.00000
   19    -17.31817    2.00000
   20    -17.12943    2.00000
   21    -16.53415    2.00000
   22    -16.08886    2.00000
   23    -15.64583    2.00000
   24    -15.21270    2.00000
   25    -14.90988    2.00000
   26    -14.51935    2.00000
   27    -14.23143    2.00000
   28    -13.94515    2.00000
   29    -13.82386    2.00000
   30    -13.66678    2.00000
   31    -13.43514    2.00000
   32    -13.07759    2.00000
   33    -12.95790    2.00000
   34    -12.73470    2.00000
   35    -12.59207    2.00000
   36    -12.07254    2.00000
   37    -11.90480    2.00000
   38    -11.80089    2.00000
   39    -11.68008    2.00000
   40    -11.48893    2.00000
   41    -11.16129    2.00000
   42    -11.07571    2.00000
   43    -10.90658    2.00000
   44    -10.84290    2.00000
   45    -10.80312    2.00000
   46    -10.69715    2.00000
   47    -10.43265    2.00000
   48    -10.31790    2.00000
   49    -10.26732    2.00000
   50     -9.97515    2.00000
   51     -9.88541    2.00000
   52     -9.86342    2.00000
   53     -9.66809    2.00000
   54     -9.45374    2.00000
   55     -9.42876    2.00000
   56     -9.35766    2.00000
   57     -9.22227    2.00000
   58     -9.15217    2.00000
   59     -9.08357    2.00000
   60     -8.90603    2.00000
   61     -8.83591    2.00000
   62     -8.75505    2.00000
   63     -8.71788    2.00000
   64     -8.41981    2.00000
   65     -8.36744    2.00000
   66     -8.24647    2.00000
   67     -7.89369    2.00000
   68     -7.86345    2.00000
   69     -7.78915    2.00000
   70     -7.78690    2.00000
   71     -7.70506    2.00000
   72     -7.51736    2.00000
   73     -7.48900    2.00000
   74     -7.40227    2.00000
   75     -7.29216    2.00000
   76     -7.21572    2.00000
   77     -6.89591    2.00000
   78     -6.81722    2.00000
   79     -6.71598    2.00000
   80     -6.59337    2.00000
   81     -6.43806    2.00000
   82     -6.17571    2.00000
   83     -6.05242    2.00000
   84     -5.96329    2.00000
   85     -5.71743    2.00000
   86     -5.38458    2.00000
   87     -4.54648    2.00000
   88     -0.94380    0.00000
   89     -0.35011    0.00000
   90     -0.26118    0.00000
   91     -0.17657    0.00000
   92     -0.04676    0.00000
   93      0.04922    0.00000
   94      0.28419    0.00000
   95      0.31516    0.00000
   96      0.40352    0.00000
   97      0.45691    0.00000
   98      0.57280    0.00000
   99      0.67989    0.00000
  100      0.71031    0.00000
  101      0.75841    0.00000
  102      0.76022    0.00000
  103      0.79875    0.00000
  104      0.86440    0.00000
  105      0.94513    0.00000
  106      0.99196    0.00000
  107      1.04527    0.00000
  108      1.09445    0.00000
  109      1.13245    0.00000

Fermi level: -2.74514

Gap: 3.603 eV
Transition (v -> c):
  (s=0, k=0, n=87, [0.00, 0.00, 0.00]) -> (s=0, k=0, n=88, [0.00, 0.00, 0.00])

Forces in eV/Ang:
  0 H     0.03188    0.05941   -0.00566
  1 H     0.28927   -0.00895   -0.20239
  2 H    -0.21197    0.17249   -0.03662
  3 H    -0.01053   -0.00395    0.02034
  4 H    -0.09587    0.14675   -0.04147
  5 H     0.04597   -0.06618   -0.04780
  6 H    -0.07577    0.00037   -0.14501
  7 H    -0.13288   -0.02932    0.04786
  8 H     0.05256   -0.11127    0.08933
  9 H    -0.17332    0.13235   -0.10171
 10 H    -0.13086   -0.01695   -0.05402
 11 H    -0.07394    0.02561    0.03592
 12 H    -0.16066    0.02932    0.14569
 13 H     0.14954    0.16326   -0.09332
 14 H     0.16889   -0.07384    0.00916
 15 H     0.07999    0.06176   -0.06554
 16 H     0.10457   -0.14995    0.22297
 17 H    -0.09542   -0.03568    0.22921
 18 H     0.06026   -0.13229   -0.04545
 19 H     0.15707   -0.13921   -0.06245
 20 H    -0.19358   -0.08710    0.23059
 21 H     0.18560    0.06541    0.09425
 22 H     0.08773   -0.06296    0.00548
 23 H    -0.08297   -0.08433    0.03198
 24 H    -0.02012    0.24230   -0.15883
 25 H    -0.08503   -0.00836   -0.09980
 26 H    -0.03936   -0.00274    0.15029
 27 O    -0.26336    0.03396    0.09493
 28 F     0.10888    0.06391   -0.11865
 29 N     0.00104    0.07999   -0.12407
 30 N     0.03637   -0.04178    0.02289
 31 N    -0.15194   -0.36433    0.06050
 32 O     0.42455   -0.08742   -0.05426
 33 O    -0.00545   -0.24383   -0.16048
 34 O    -0.22556    0.10334   -0.16500
 35 O     0.06009    0.08291    0.33453
 36 O    -0.01512    0.20807   -0.08262
 37 C     0.16550    0.18711    0.10902
 38 C    -0.18699    0.20471    0.03878
 39 C     0.13700   -0.20030   -0.11736
 40 C    -0.14171   -0.10411    0.03295
 41 C    -0.03103    0.21933   -0.00647
 42 N     0.08514   -0.06567    0.01708
 43 N     0.18304   -0.34734    0.15637
 44 C     0.14805    0.00168    0.14876
 45 C     0.08619   -0.20721   -0.09430
 46 C    -0.17440    0.07041   -0.07282
 47 C    -0.14664    0.10730    0.10267
 48 C    -0.06094    0.07840   -0.05692
 49 C    -0.08460   -0.08449    0.07653
 50 C    -0.08613    0.14589   -0.00242
 51 C     0.12572   -0.13240   -0.08756
 52 C    -0.00027   -0.18894    0.17967
 53 C     0.12491    0.05745   -0.20740
 54 C    -0.04353    0.19937   -0.11099
 55 C    -0.07389    0.09927    0.03899
 56 C    -0.09944    0.06798   -0.24496
 57 C    -0.21593    0.17848    0.19283
 58 P     0.53473   -0.48434   -0.09776

System changes: positions 

Initializing position-dependent things.

Density initialized from wave functions
          .---------------------------------------------------------------.  
         /|                                                               |  
        / |                                                               |  
       /  |                                                               |  
      /   |                                                               |  
     /    |                                                               |  
    /     |                                                               |  
   /      |                                                               |  
  /       |                                                               |  
 *        |                                      H                        |  
 |        |                            H          N  H  H                 |  
 |        |        H        H  H   O  C      N   C      H                 |  
 |        |    H  C H    H   C  C   C    N  C C  C N     C H              |  
 |        |       H C   H O   H  C    H C  N       O   C                  |  
 |        |       H   CC      O   H H C                                   |  
 |        |     H       O  P           H               HC H               |  
 |        .-----------H-----O-------------------------H-------------------.  
 |       /                                                               /   
 |      /                                                               /    
 |     /                                                               /     
 |    /                                                               /      
 |   /                                                               /       
 |  /                                                               /        
 | /                                                               /         
 |/                                                               /          
 *---------------------------------------------------------------*           

Positions:
   0 H     13.885940    4.368323    7.812052    ( 0.0000,  0.0000,  0.0000)
   1 H     16.694210   10.661097    7.786549    ( 0.0000,  0.0000,  0.0000)
   2 H     18.349159   10.260236    7.454636    ( 0.0000,  0.0000,  0.0000)
   3 H     21.878646    6.933174    7.634869    ( 0.0000,  0.0000,  0.0000)
   4 H     20.341345    7.342001    8.447281    ( 0.0000,  0.0000,  0.0000)
   5 H     20.956712    5.673514    8.505848    ( 0.0000,  0.0000,  0.0000)
   6 H     20.303087    4.911975    4.864965    ( 0.0000,  0.0000,  0.0000)
   7 H     21.855963    5.522148    5.504935    ( 0.0000,  0.0000,  0.0000)
   8 H     20.967594    4.235222    6.371682    ( 0.0000,  0.0000,  0.0000)
   9 H      4.635467    8.942913    5.292625    ( 0.0000,  0.0000,  0.0000)
  10 H      4.420800    7.236240    4.823317    ( 0.0000,  0.0000,  0.0000)
  11 H      5.318164    8.305488    7.553282    ( 0.0000,  0.0000,  0.0000)
  12 H      3.988230    7.162022    7.215826    ( 0.0000,  0.0000,  0.0000)
  13 H      6.991798    8.799205    5.101808    ( 0.0000,  0.0000,  0.0000)
  14 H      6.618282    7.458809    3.997817    ( 0.0000,  0.0000,  0.0000)
  15 H      5.577211    5.427337    6.508038    ( 0.0000,  0.0000,  0.0000)
  16 H      6.348975    6.115999    7.958252    ( 0.0000,  0.0000,  0.0000)
  17 H     19.999815    7.118248    5.953508    ( 0.0000,  0.0000,  0.0000)
  18 H      7.884453    7.402982    6.653920    ( 0.0000,  0.0000,  0.0000)
  19 H     10.734811    3.989213    7.963522    ( 0.0000,  0.0000,  0.0000)
  20 H      9.887281    4.775132    9.333555    ( 0.0000,  0.0000,  0.0000)
  21 H     13.712009    8.666720    5.547030    ( 0.0000,  0.0000,  0.0000)
  22 H     13.631447    6.940267    5.062350    ( 0.0000,  0.0000,  0.0000)
  23 H     12.319898    8.063504    4.618770    ( 0.0000,  0.0000,  0.0000)
  24 H     13.282360    8.004431    8.582118    ( 0.0000,  0.0000,  0.0000)
  25 H     10.389872    7.016650    8.418108    ( 0.0000,  0.0000,  0.0000)
  26 H     11.880126    5.446957    6.222896    ( 0.0000,  0.0000,  0.0000)
  27 O      9.720791    4.010452    5.196021    ( 0.0000,  0.0000,  0.0000)
  28 F     11.556329    8.648999    7.010489    ( 0.0000,  0.0000,  0.0000)
  29 N     18.081880    7.899768    7.064707    ( 0.0000,  0.0000,  0.0000)
  30 N     15.933609    4.857965    7.411529    ( 0.0000,  0.0000,  0.0000)
  31 N     15.741119    8.469429    7.512043    ( 0.0000,  0.0000,  0.0000)
  32 O     18.806129    5.698241    6.913043    ( 0.0000,  0.0000,  0.0000)
  33 O     12.276753    6.189475    8.703272    ( 0.0000,  0.0000,  0.0000)
  34 O      7.792846    5.747977    5.361203    ( 0.0000,  0.0000,  0.0000)
  35 O      8.966811    5.023220    7.520924    ( 0.0000,  0.0000,  0.0000)
  36 O     10.155191    6.548270    5.831434    ( 0.0000,  0.0000,  0.0000)
  37 C     17.041561    8.748167    7.279377    ( 0.0000,  0.0000,  0.0000)
  38 C     17.820786    6.586163    7.097212    ( 0.0000,  0.0000,  0.0000)
  39 C     14.657947    5.118812    7.649882    ( 0.0000,  0.0000,  0.0000)
  40 C     16.511175    6.120390    7.327831    ( 0.0000,  0.0000,  0.0000)
  41 C     15.557113    7.135592    7.522886    ( 0.0000,  0.0000,  0.0000)
  42 N     17.355369   10.098312    7.219012    ( 0.0000,  0.0000,  0.0000)
  43 N     14.369002    6.471795    7.733147    ( 0.0000,  0.0000,  0.0000)
  44 C     20.865669    6.567902    7.868959    ( 0.0000,  0.0000,  0.0000)
  45 C     20.851963    5.156657    5.784479    ( 0.0000,  0.0000,  0.0000)
  46 C      5.024196    7.927089    5.432801    ( 0.0000,  0.0000,  0.0000)
  47 C      4.987743    7.482300    6.895366    ( 0.0000,  0.0000,  0.0000)
  48 C      6.498393    7.819940    5.029699    ( 0.0000,  0.0000,  0.0000)
  49 C      6.002586    6.348417    6.943841    ( 0.0000,  0.0000,  0.0000)
  50 C     20.137639    6.224151    6.583765    ( 0.0000,  0.0000,  0.0000)
  51 C      7.134147    6.860018    6.054144    ( 0.0000,  0.0000,  0.0000)
  52 C     10.189833    4.889160    8.288583    ( 0.0000,  0.0000,  0.0000)
  53 C     13.047415    7.806121    5.403233    ( 0.0000,  0.0000,  0.0000)
  54 C     13.087703    7.103579    7.976074    ( 0.0000,  0.0000,  0.0000)
  55 C     10.995759    6.154690    8.078720    ( 0.0000,  0.0000,  0.0000)
  56 C     11.326862    6.330741    6.611320    ( 0.0000,  0.0000,  0.0000)
  57 C     12.295579    7.498968    6.669000    ( 0.0000,  0.0000,  0.0000)
  58 P      9.192513    5.205952    5.896489    ( 0.0000,  0.0000,  0.0000)

Unit cell:
           periodic     x           y           z      points  spacing
  1. axis:    no    25.874300    0.000000    0.000000   120     0.2156
  2. axis:    no     0.000000   14.643900    0.000000    70     0.2092
  3. axis:    no     0.000000    0.000000   13.321200    63     0.2114

  Lengths:  25.874300  14.643900  13.321200
  Angles:   90.000000  90.000000  90.000000

Effective grid spacing dv^(1/3) = 0.2121

                     log10-error:    total        iterations:
           time      wfs    density  energy       poisson
iter:   1  10:32:28  -2.85         -341.825315           
iter:   2  10:33:05  -4.18  -2.64  -341.823770           
iter:   3  10:33:42  -3.63  -2.65  -341.815559           
iter:   4  10:34:17  -5.37  -3.03  -341.815559           
iter:   5  10:34:53  -4.44  -3.02  -341.816753           
iter:   6  10:35:29  -4.27  -2.99  -341.814955           
iter:   7  10:36:07  -5.52  -3.42  -341.814880           
iter:   8  10:36:43  -5.95  -3.52  -341.814862           
iter:   9  10:37:20  -6.37  -3.88  -341.814861           
iter:  10  10:37:55  -5.75  -3.87  -341.814862           
iter:  11  10:38:31  -6.97  -4.02  -341.814845           
iter:  12  10:39:07  -6.82  -4.12  -341.814842           
iter:  13  10:39:42  -6.57  -4.16  -341.814849           
iter:  14  10:40:18  -6.93  -4.33  -341.814842           
iter:  15  10:40:54  -7.52  -4.66  -341.814842           

Converged after 15 iterations.

Dipole moment: (-0.052594, 0.947308, 0.546172) |e|*Ang

Energy contributions relative to reference atoms: (reference = -51532.884347)

Kinetic:       +229.054946
Potential:     -233.904228
External:        +0.000000
XC:            -336.293361
Entropy (-ST):   +0.000000
Local:           -0.672200
--------------------------
Free energy:   -341.814842
Extrapolated:  -341.814842

 Band  Eigenvalues  Occupancy
    0    -29.81275    2.00000
    1    -27.42708    2.00000
    2    -27.01791    2.00000
    3    -26.72705    2.00000
    4    -25.94821    2.00000
    5    -25.76373    2.00000
    6    -25.47800    2.00000
    7    -24.29890    2.00000
    8    -23.72903    2.00000
    9    -22.25811    2.00000
   10    -21.90908    2.00000
   11    -21.54365    2.00000
   12    -20.56738    2.00000
   13    -19.97185    2.00000
   14    -19.29902    2.00000
   15    -19.22874    2.00000
   16    -18.04347    2.00000
   17    -17.38597    2.00000
   18    -17.32936    2.00000
   19    -17.28051    2.00000
   20    -17.10409    2.00000
   21    -16.51581    2.00000
   22    -16.08920    2.00000
   23    -15.62906    2.00000
   24    -15.21729    2.00000
   25    -14.89873    2.00000
   26    -14.50997    2.00000
   27    -14.21074    2.00000
   28    -13.92158    2.00000
   29    -13.80949    2.00000
   30    -13.64701    2.00000
   31    -13.42394    2.00000
   32    -13.05449    2.00000
   33    -12.94740    2.00000
   34    -12.71355    2.00000
   35    -12.59105    2.00000
   36    -12.06240    2.00000
   37    -11.88580    2.00000
   38    -11.76881    2.00000
   39    -11.65912    2.00000
   40    -11.48066    2.00000
   41    -11.14246    2.00000
   42    -11.06681    2.00000
   43    -10.87804    2.00000
   44    -10.83076    2.00000
   45    -10.77120    2.00000
   46    -10.69553    2.00000
   47    -10.42776    2.00000
   48    -10.32889    2.00000
   49    -10.26553    2.00000
   50     -9.95959    2.00000
   51     -9.88210    2.00000
   52     -9.83854    2.00000
   53     -9.67210    2.00000
   54     -9.46089    2.00000
   55     -9.40816    2.00000
   56     -9.34056    2.00000
   57     -9.21378    2.00000
   58     -9.14233    2.00000
   59     -9.07985    2.00000
   60     -8.90500    2.00000
   61     -8.85994    2.00000
   62     -8.76815    2.00000
   63     -8.69746    2.00000
   64     -8.42749    2.00000
   65     -8.36249    2.00000
   66     -8.23015    2.00000
   67     -7.87631    2.00000
   68     -7.85385    2.00000
   69     -7.81384    2.00000
   70     -7.77263    2.00000
   71     -7.69852    2.00000
   72     -7.52671    2.00000
   73     -7.49035    2.00000
   74     -7.40635    2.00000
   75     -7.28561    2.00000
   76     -7.21576    2.00000
   77     -6.90797    2.00000
   78     -6.83311    2.00000
   79     -6.70060    2.00000
   80     -6.67814    2.00000
   81     -6.45316    2.00000
   82     -6.18991    2.00000
   83     -6.11944    2.00000
   84     -5.97592    2.00000
   85     -5.72654    2.00000
   86     -5.41666    2.00000
   87     -4.54360    2.00000
   88     -0.95674    0.00000
   89     -0.35208    0.00000
   90     -0.26993    0.00000
   91     -0.17270    0.00000
   92     -0.05049    0.00000
   93      0.04914    0.00000
   94      0.27514    0.00000
   95      0.31542    0.00000
   96      0.39591    0.00000
   97      0.45177    0.00000
   98      0.56557    0.00000
   99      0.68212    0.00000
  100      0.71304    0.00000
  101      0.75461    0.00000
  102      0.76437    0.00000
  103      0.80238    0.00000
  104      0.86315    0.00000
  105      0.93727    0.00000
  106      0.99216    0.00000
  107      1.04633    0.00000
  108      1.09243    0.00000
  109      1.12816    0.00000

Fermi level: -2.75017

Gap: 3.587 eV
Transition (v -> c):
  (s=0, k=0, n=87, [0.00, 0.00, 0.00]) -> (s=0, k=0, n=88, [0.00, 0.00, 0.00])

Forces in eV/Ang:
  0 H     0.04099    0.02897   -0.01484
  1 H     0.22254   -0.00741   -0.18716
  2 H    -0.13725    0.14298   -0.04451
  3 H     0.02876    0.01297    0.04115
  4 H    -0.03223    0.05742   -0.07214
  5 H     0.04298   -0.05231   -0.01962
  6 H    -0.03726   -0.00912   -0.07521
  7 H    -0.07186   -0.04700    0.01457
  8 H     0.03727   -0.10227    0.05801
  9 H    -0.16552    0.08175   -0.09327
 10 H    -0.11309    0.01312   -0.03745
 11 H    -0.08020    0.03530    0.03705
 12 H    -0.12021    0.05227    0.12539
 13 H     0.07750    0.07127   -0.09459
 14 H     0.13569   -0.04500    0.02030
 15 H     0.03951    0.01673   -0.05112
 16 H     0.03977   -0.11381    0.09148
 17 H    -0.04480    0.05836    0.13144
 18 H     0.04400   -0.13372   -0.05822
 19 H     0.10608   -0.07663    0.00096
 20 H    -0.11316   -0.11117    0.18441
 21 H     0.13662    0.01999    0.04799
 22 H     0.07578   -0.03380   -0.00061
 23 H    -0.05153   -0.05285   -0.01602
 24 H    -0.03406    0.17316   -0.13297
 25 H    -0.08665    0.01197   -0.04209
 26 H    -0.06968    0.03906    0.12411
 27 O    -0.06266   -0.13875    0.01976
 28 F     0.10612    0.03618   -0.13041
 29 N    -0.13076    0.00719   -0.05950
 30 N     0.01673    0.09960   -0.01271
 31 N     0.17672   -0.27729    0.05047
 32 O     0.18416   -0.04357    0.00608
 33 O    -0.07807   -0.20862   -0.02838
 34 O    -0.02222    0.04347   -0.03634
 35 O     0.16661    0.02846    0.11331
 36 O    -0.02893   -0.03656   -0.07560
 37 C    -0.07737    0.36065    0.06256
 38 C     0.11082    0.00325   -0.03562
 39 C     0.07468   -0.25272   -0.03497
 40 C    -0.06543   -0.02193    0.02765
 41 C     0.04043   -0.00940    0.01505
 42 N     0.04321   -0.08876    0.04576
 43 N    -0.09481   -0.04125    0.14809
 44 C     0.06185    0.05036    0.06972
 45 C    -0.00097   -0.05817   -0.04909
 46 C    -0.11275    0.05672   -0.01036
 47 C    -0.10865    0.02524    0.03877
 48 C     0.01130    0.03882    0.02426
 49 C     0.02421    0.02912    0.06808
 50 C    -0.12290   -0.01638    0.08443
 51 C     0.09157   -0.13386   -0.09672
 52 C    -0.04449   -0.08566    0.13663
 53 C     0.04096    0.02333    0.02120
 54 C     0.20884    0.06032   -0.24322
 55 C    -0.03684   -0.02601   -0.06637
 56 C    -0.05626    0.13217   -0.13706
 57 C    -0.04902    0.14527    0.10082
 58 P    -0.05992    0.00906    0.05199

System changes: positions 

Initializing position-dependent things.

Density initialized from wave functions
          .---------------------------------------------------------------.  
         /|                                                               |  
        / |                                                               |  
       /  |                                                               |  
      /   |                                                               |  
     /    |                                                               |  
    /     |                                                               |  
   /      |                                                               |  
  /       |                                                               |  
 *        |                                      H                        |  
 |        |                            H          N  H  H                 |  
 |        |        H        H  H   O  C      N   C      H                 |  
 |        |    H  C H    H   C  C   C    N  C C  C N     C H              |  
 |        |       H C   H O   H  C    H C  N       O   C                  |  
 |        |       H   CC      O   H H C                                   |  
 |        |     H       O  P           H               HC H               |  
 |        .-----------H----O--------------------------H-------------------.  
 |       /                                                               /   
 |      /                                                               /    
 |     /                                                               /     
 |    /                                                               /      
 |   /                                                               /       
 |  /                                                               /        
 | /                                                               /         
 |/                                                               /          
 *---------------------------------------------------------------*           

Positions:
   0 H     13.886615    4.369420    7.811859    ( 0.0000,  0.0000,  0.0000)
   1 H     16.702064   10.663051    7.780904    ( 0.0000,  0.0000,  0.0000)
   2 H     18.345726   10.267171    7.453852    ( 0.0000,  0.0000,  0.0000)
   3 H     21.879716    6.933561    7.635636    ( 0.0000,  0.0000,  0.0000)
   4 H     20.338810    7.346336    8.445518    ( 0.0000,  0.0000,  0.0000)
   5 H     20.958473    5.670593    8.504686    ( 0.0000,  0.0000,  0.0000)
   6 H     20.300899    4.911770    4.860364    ( 0.0000,  0.0000,  0.0000)
   7 H     21.853087    5.521287    5.505951    ( 0.0000,  0.0000,  0.0000)
   8 H     20.969394    4.231178    6.374757    ( 0.0000,  0.0000,  0.0000)
   9 H      4.629067    8.947229    5.288818    ( 0.0000,  0.0000,  0.0000)
  10 H      4.415894    7.235818    4.821431    ( 0.0000,  0.0000,  0.0000)
  11 H      5.315566    8.307197    7.555183    ( 0.0000,  0.0000,  0.0000)
  12 H      3.982577    7.163462    7.221159    ( 0.0000,  0.0000,  0.0000)
  13 H      6.996272    8.803666    5.098239    ( 0.0000,  0.0000,  0.0000)
  14 H      6.624255    7.456250    3.998069    ( 0.0000,  0.0000,  0.0000)
  15 H      5.579310    5.428303    6.505255    ( 0.0000,  0.0000,  0.0000)
  16 H      6.351867    6.110853    7.964296    ( 0.0000,  0.0000,  0.0000)
  17 H     19.996265    7.119503    5.960066    ( 0.0000,  0.0000,  0.0000)
  18 H      7.886990    7.398219    6.652371    ( 0.0000,  0.0000,  0.0000)
  19 H     10.740137    3.984820    7.962077    ( 0.0000,  0.0000,  0.0000)
  20 H      9.880966    4.771556    9.341301    ( 0.0000,  0.0000,  0.0000)
  21 H     13.718296    8.668475    5.549873    ( 0.0000,  0.0000,  0.0000)
  22 H     13.634679    6.938046    5.062492    ( 0.0000,  0.0000,  0.0000)
  23 H     12.316711    8.060828    4.619048    ( 0.0000,  0.0000,  0.0000)
  24 H     13.281793    8.012907    8.576466    ( 0.0000,  0.0000,  0.0000)
  25 H     10.386082    7.017446    8.415190    ( 0.0000,  0.0000,  0.0000)
  26 H     11.879097    5.446789    6.227771    ( 0.0000,  0.0000,  0.0000)
  27 O      9.716868    4.001573    5.193894    ( 0.0000,  0.0000,  0.0000)
  28 F     11.558567    8.653998    7.007259    ( 0.0000,  0.0000,  0.0000)
  29 N     18.081746    7.901289    7.060620    ( 0.0000,  0.0000,  0.0000)
  30 N     15.937222    4.854463    7.411534    ( 0.0000,  0.0000,  0.0000)
  31 N     15.741327    8.465670    7.513987    ( 0.0000,  0.0000,  0.0000)
  32 O     18.811121    5.700921    6.913228    ( 0.0000,  0.0000,  0.0000)
  33 O     12.276990    6.182692    8.696712    ( 0.0000,  0.0000,  0.0000)
  34 O      7.794564    5.745983    5.356327    ( 0.0000,  0.0000,  0.0000)
  35 O      8.969108    5.025289    7.529219    ( 0.0000,  0.0000,  0.0000)
  36 O     10.153760    6.553818    5.826804    ( 0.0000,  0.0000,  0.0000)
  37 C     17.041413    8.751321    7.283486    ( 0.0000,  0.0000,  0.0000)
  38 C     17.821561    6.586993    7.097106    ( 0.0000,  0.0000,  0.0000)
  39 C     14.661718    5.111400    7.646447    ( 0.0000,  0.0000,  0.0000)
  40 C     16.509898    6.118557    7.328407    ( 0.0000,  0.0000,  0.0000)
  41 C     15.556047    7.134082    7.522947    ( 0.0000,  0.0000,  0.0000)
  42 N     17.356726   10.095432    7.217607    ( 0.0000,  0.0000,  0.0000)
  43 N     14.368968    6.467799    7.739219    ( 0.0000,  0.0000,  0.0000)
  44 C     20.868070    6.569355    7.872672    ( 0.0000,  0.0000,  0.0000)
  45 C     20.851742    5.151767    5.782232    ( 0.0000,  0.0000,  0.0000)
  46 C      5.018675    7.929832    5.430981    ( 0.0000,  0.0000,  0.0000)
  47 C      4.982758    7.484044    6.897582    ( 0.0000,  0.0000,  0.0000)
  48 C      6.497230    7.823622    5.028625    ( 0.0000,  0.0000,  0.0000)
  49 C      6.001499    6.348071    6.948319    ( 0.0000,  0.0000,  0.0000)
  50 C     20.138950    6.224275    6.585362    ( 0.0000,  0.0000,  0.0000)
  51 C      7.135422    6.856957    6.052179    ( 0.0000,  0.0000,  0.0000)
  52 C     10.191249    4.884056    8.295925    ( 0.0000,  0.0000,  0.0000)
  53 C     13.050969    7.807878    5.400446    ( 0.0000,  0.0000,  0.0000)
  54 C     13.088428    7.105619    7.973297    ( 0.0000,  0.0000,  0.0000)
  55 C     10.993696    6.154294    8.078827    ( 0.0000,  0.0000,  0.0000)
  56 C     11.323477    6.334111    6.607400    ( 0.0000,  0.0000,  0.0000)
  57 C     12.292982    7.503443    6.669265    ( 0.0000,  0.0000,  0.0000)
  58 P      9.195848    5.204232    5.898414    ( 0.0000,  0.0000,  0.0000)

Unit cell:
           periodic     x           y           z      points  spacing
  1. axis:    no    25.874300    0.000000    0.000000   120     0.2156
  2. axis:    no     0.000000   14.643900    0.000000    70     0.2092
  3. axis:    no     0.000000    0.000000   13.321200    63     0.2114

  Lengths:  25.874300  14.643900  13.321200
  Angles:   90.000000  90.000000  90.000000

Effective grid spacing dv^(1/3) = 0.2121

                     log10-error:    total        iterations:
           time      wfs    density  energy       poisson
iter:   1  10:42:00  -2.90         -341.858068           
iter:   2  10:42:37  -4.23  -2.61  -341.855670           
iter:   3  10:43:13  -3.69  -2.63  -341.844542           
iter:   4  10:43:49  -5.42  -3.01  -341.844995           
iter:   5  10:44:25  -5.08  -3.00  -341.844748           
iter:   6  10:45:02  -4.44  -3.07  -341.843616           
iter:   7  10:45:39  -5.83  -3.34  -341.843449           
iter:   8  10:46:15  -5.74  -3.52  -341.843407           
iter:   9  10:46:52  -6.35  -3.88  -341.843406           
iter:  10  10:47:28  -6.29  -3.86  -341.843400           
iter:  11  10:48:06  -7.51  -4.19  -341.843397           

Converged after 11 iterations.

Dipole moment: (-0.045285, 0.965023, 0.551453) |e|*Ang

Energy contributions relative to reference atoms: (reference = -51532.884347)

Kinetic:       +224.817592
Potential:     -230.708522
External:        +0.000000
XC:            -335.268722
Entropy (-ST):   +0.000000
Local:           -0.683746
--------------------------
Free energy:   -341.843397
Extrapolated:  -341.843397

 Band  Eigenvalues  Occupancy
    0    -29.85468    2.00000
    1    -27.40539    2.00000
    2    -26.98505    2.00000
    3    -26.72043    2.00000
    4    -25.93483    2.00000
    5    -25.76371    2.00000
    6    -25.45562    2.00000
    7    -24.31063    2.00000
    8    -23.70465    2.00000
    9    -22.26750    2.00000
   10    -21.96414    2.00000
   11    -21.53563    2.00000
   12    -20.50770    2.00000
   13    -19.94150    2.00000
   14    -19.26753    2.00000
   15    -19.20063    2.00000
   16    -18.03704    2.00000
   17    -17.35893    2.00000
   18    -17.29854    2.00000
   19    -17.24960    2.00000
   20    -17.08194    2.00000
   21    -16.50178    2.00000
   22    -16.07662    2.00000
   23    -15.61916    2.00000
   24    -15.24071    2.00000
   25    -14.90087    2.00000
   26    -14.51279    2.00000
   27    -14.19943    2.00000
   28    -13.92768    2.00000
   29    -13.79848    2.00000
   30    -13.63661    2.00000
   31    -13.40134    2.00000
   32    -13.03869    2.00000
   33    -12.94733    2.00000
   34    -12.70810    2.00000
   35    -12.59539    2.00000
   36    -12.06212    2.00000
   37    -11.88436    2.00000
   38    -11.73622    2.00000
   39    -11.63020    2.00000
   40    -11.47419    2.00000
   41    -11.15795    2.00000
   42    -11.06722    2.00000
   43    -10.86452    2.00000
   44    -10.83276    2.00000
   45    -10.75383    2.00000
   46    -10.70071    2.00000
   47    -10.42391    2.00000
   48    -10.33231    2.00000
   49    -10.26620    2.00000
   50     -9.97407    2.00000
   51     -9.88301    2.00000
   52     -9.81129    2.00000
   53     -9.67120    2.00000
   54     -9.46495    2.00000
   55     -9.40480    2.00000
   56     -9.33259    2.00000
   57     -9.20169    2.00000
   58     -9.13476    2.00000
   59     -9.07220    2.00000
   60     -8.90347    2.00000
   61     -8.86962    2.00000
   62     -8.76958    2.00000
   63     -8.69285    2.00000
   64     -8.42544    2.00000
   65     -8.35576    2.00000
   66     -8.23242    2.00000
   67     -7.86758    2.00000
   68     -7.85002    2.00000
   69     -7.81298    2.00000
   70     -7.77229    2.00000
   71     -7.68930    2.00000
   72     -7.52310    2.00000
   73     -7.48458    2.00000
   74     -7.40178    2.00000
   75     -7.27477    2.00000
   76     -7.20348    2.00000
   77     -6.91402    2.00000
   78     -6.85841    2.00000
   79     -6.69258    2.00000
   80     -6.67584    2.00000
   81     -6.44124    2.00000
   82     -6.19691    2.00000
   83     -6.12818    2.00000
   84     -5.97876    2.00000
   85     -5.72459    2.00000
   86     -5.40974    2.00000
   87     -4.55029    2.00000
   88     -0.95757    0.00000
   89     -0.36097    0.00000
   90     -0.27692    0.00000
   91     -0.17277    0.00000
   92     -0.05599    0.00000
   93      0.04901    0.00000
   94      0.27050    0.00000
   95      0.31348    0.00000
   96      0.39163    0.00000
   97      0.44717    0.00000
   98      0.56244    0.00000
   99      0.68494    0.00000
  100      0.71385    0.00000
  101      0.75483    0.00000
  102      0.76531    0.00000
  103      0.80324    0.00000
  104      0.86388    0.00000
  105      0.93205    0.00000
  106      0.99264    0.00000
  107      1.04715    0.00000
  108      1.09133    0.00000
  109      1.12852    0.00000

Fermi level: -2.75393

Gap: 3.593 eV
Transition (v -> c):
  (s=0, k=0, n=87, [0.00, 0.00, 0.00]) -> (s=0, k=0, n=88, [0.00, 0.00, 0.00])

Forces in eV/Ang:
  0 H    -0.00854   -0.08484   -0.01078
  1 H     0.07804    0.06860   -0.12446
  2 H    -0.00673    0.09898   -0.05248
  3 H     0.05644    0.02890    0.05136
  4 H     0.00922    0.00212   -0.07047
  5 H     0.03784   -0.00450   -0.00012
  6 H    -0.00389   -0.01710   -0.00570
  7 H    -0.00826   -0.05010   -0.01683
  8 H     0.01358   -0.04627   -0.00823
  9 H    -0.14112    0.01642   -0.07469
 10 H    -0.07801    0.05197   -0.01068
 11 H    -0.09277    0.02830    0.02210
 12 H    -0.07011    0.06375    0.09783
 13 H     0.01370   -0.01406   -0.08122
 14 H     0.09116   -0.00631    0.05162
 15 H     0.02205    0.02045   -0.01014
 16 H    -0.01295   -0.07083   -0.02123
 17 H    -0.00178    0.08224    0.07967
 18 H     0.03807   -0.12989   -0.07065
 19 H     0.03002    0.00973    0.07781
 20 H    -0.03168   -0.11818    0.11305
 21 H     0.07196   -0.03450    0.00348
 22 H     0.03617    0.02359    0.01757
 23 H     0.01906   -0.03220   -0.01292
 24 H    -0.05354    0.05129   -0.14518
 25 H    -0.05882   -0.01573   -0.00780
 26 H    -0.08859    0.08299    0.08030
 27 O    -0.09045    0.13811    0.18760
 28 F     0.08651    0.06297   -0.09543
 29 N    -0.18101   -0.00319    0.00198
 30 N     0.01157    0.11335   -0.04004
 31 N     0.19700   -0.11130    0.09213
 32 O     0.00380   -0.07139    0.06323
 33 O    -0.03873   -0.09236   -0.00042
 34 O    -0.01244    0.04027    0.03677
 35 O     0.15149   -0.01194   -0.06995
 36 O    -0.05028   -0.16467   -0.11198
 37 C    -0.06076    0.02764   -0.03180
 38 C     0.09830   -0.00614   -0.04027
 39 C    -0.01249    0.00389    0.04132
 40 C     0.11776    0.03331   -0.00571
 41 C     0.05021   -0.15709    0.05575
 42 N     0.02951    0.06249    0.02011
 43 N    -0.00928   -0.01450    0.05811
 44 C    -0.01344    0.01080   -0.00430
 45 C    -0.08839    0.01710    0.04282
 46 C    -0.04106    0.02925    0.02335
 47 C    -0.04031   -0.01541    0.00516
 48 C     0.04829   -0.01729    0.04664
 49 C     0.06468    0.04798    0.00173
 50 C    -0.06261   -0.06958    0.07207
 51 C     0.00837   -0.03229   -0.03903
 52 C    -0.00082   -0.02033    0.05294
 53 C    -0.00680   -0.00403    0.11139
 54 C     0.15799   -0.02052   -0.14397
 55 C    -0.02094   -0.05403   -0.06955
 56 C    -0.00913    0.09828    0.00476
 57 C     0.09891    0.03592   -0.03796
 58 P    -0.12052   -0.14022   -0.05321

System changes: positions 

Initializing position-dependent things.

Density initialized from wave functions
          .---------------------------------------------------------------.  
         /|                                                               |  
        / |                                                               |  
       /  |                                                               |  
      /   |                                                               |  
     /    |                                                               |  
    /     |                                                               |  
   /      |                                                               |  
  /       |                                                               |  
 *        |                                      H                        |  
 |        |                            H          N  H  H                 |  
 |        |        H        H  H   O  C      N   C      H                 |  
 |        |    H  C H    H   C  C   C    N  C C  C N     C H              |  
 |        |       H C   H O   H  C    H C  N       O   C                  |  
 |        |       H   CC      O   H H C                                   |  
 |        |     H       O  P           H               HC H               |  
 |        .-----------H----O--------------------------H-------------------.  
 |       /                                                               /   
 |      /                                                               /    
 |     /                                                               /     
 |    /                                                               /      
 |   /                                                               /       
 |  /                                                               /        
 | /                                                               /         
 |/                                                               /          
[...]
 28 F     0.04170    0.00662   -0.01686
 29 N     0.04700    0.01497    0.01472
 30 N    -0.01858   -0.03081    0.00546
 31 N    -0.00138    0.02698   -0.00238
 32 O     0.02381   -0.02127   -0.00822
 33 O    -0.03377   -0.01230   -0.02020
 34 O     0.01449   -0.01352   -0.01510
 35 O     0.00877    0.04218    0.00362
 36 O     0.02654   -0.00683    0.01668
 37 C     0.01336    0.01872   -0.03587
 38 C     0.01370    0.00250    0.00008
 39 C     0.00707    0.01671    0.02872
 40 C     0.00434   -0.00776   -0.01231
 41 C    -0.01554    0.01270   -0.01484
 42 N     0.00088    0.00377    0.01995
 43 N    -0.01886    0.00614    0.02083
 44 C     0.00208   -0.01014   -0.00621
 45 C     0.00109   -0.00802    0.00496
 46 C    -0.00733    0.00195    0.01180
 47 C     0.00040    0.01245    0.02056
 48 C    -0.01168   -0.01781    0.00575
 49 C    -0.00374   -0.00740    0.00120
 50 C     0.00842   -0.00825   -0.01154
 51 C     0.00523   -0.02124   -0.00875
 52 C    -0.01111    0.00765    0.01490
 53 C     0.00374    0.00007    0.00949
 54 C    -0.04079    0.01071   -0.00767
 55 C    -0.02425   -0.01453    0.00389
 56 C    -0.02199   -0.01199    0.02981
 57 C    -0.02163   -0.01698    0.00002
 58 P     0.02662   -0.00517   -0.01089

System changes: positions 

Initializing position-dependent things.

Density initialized from wave functions
          .---------------------------------------------------------------.  
         /|                                                               |  
        / |                                                               |  
       /  |                                                               |  
      /   |                                                               |  
     /    |                                                               |  
    /     |                                                               |  
   /      |                                                               |  
  /       |                                                               |  
 *        |                                      H                        |  
 |        |                            H          N  H  H                 |  
 |        |        H         H HC  O  C     CN   C      HC                |  
 |        |    H  C H    H   C      C    N    C  C N       H              |  
 |        |       H C  C  O   H  C    H CH N       O   C                  |  
 |        |       H   C H     O   H   C                                   |  
 |        |     H       O  P         H H               HC H               |  
 |        .-----------H----O--------------------------H-------------------.  
 |       /                                                               /   
 |      /                                                               /    
 |     /                                                               /     
 |    /                                                               /      
 |   /                                                               /       
 |  /                                                               /        
 | /                                                               /         
 |/                                                               /          
 *---------------------------------------------------------------*           

Positions:
   0 H     13.900860    4.359558    7.755074    ( 0.0000,  0.0000,  0.0000)
   1 H     16.747735   10.741734    7.627420    ( 0.0000,  0.0000,  0.0000)
   2 H     18.402556   10.303851    7.349145    ( 0.0000,  0.0000,  0.0000)
   3 H     21.929747    6.906261    7.650101    ( 0.0000,  0.0000,  0.0000)
   4 H     20.403712    7.323941    8.473909    ( 0.0000,  0.0000,  0.0000)
   5 H     21.028941    5.645227    8.545338    ( 0.0000,  0.0000,  0.0000)
   6 H     20.234658    4.878601    4.912665    ( 0.0000,  0.0000,  0.0000)
   7 H     21.829371    5.430489    5.504233    ( 0.0000,  0.0000,  0.0000)
   8 H     20.922301    4.177401    6.402855    ( 0.0000,  0.0000,  0.0000)
   9 H      4.625218    8.917069    5.231208    ( 0.0000,  0.0000,  0.0000)
  10 H      4.398339    7.201638    4.838517    ( 0.0000,  0.0000,  0.0000)
  11 H      5.286155    8.357444    7.542049    ( 0.0000,  0.0000,  0.0000)
  12 H      3.940175    7.234070    7.251794    ( 0.0000,  0.0000,  0.0000)
  13 H      7.019051    8.727965    5.057126    ( 0.0000,  0.0000,  0.0000)
  14 H      6.649560    7.319543    4.053571    ( 0.0000,  0.0000,  0.0000)
  15 H      5.522069    5.451500    6.545759    ( 0.0000,  0.0000,  0.0000)
  16 H      6.262471    6.098542    8.027979    ( 0.0000,  0.0000,  0.0000)
  17 H     20.021537    7.106214    6.030661    ( 0.0000,  0.0000,  0.0000)
  18 H      7.873229    7.359551    6.721646    ( 0.0000,  0.0000,  0.0000)
  19 H     10.836552    4.010028    8.056490    ( 0.0000,  0.0000,  0.0000)
  20 H      9.963987    4.805653    9.414242    ( 0.0000,  0.0000,  0.0000)
  21 H     13.853065    8.565602    5.557340    ( 0.0000,  0.0000,  0.0000)
  22 H     13.722420    6.839353    5.109493    ( 0.0000,  0.0000,  0.0000)
  23 H     12.478097    7.994606    4.554731    ( 0.0000,  0.0000,  0.0000)
  24 H     13.310641    8.073119    8.473778    ( 0.0000,  0.0000,  0.0000)
  25 H     10.380167    7.041575    8.387798    ( 0.0000,  0.0000,  0.0000)
  26 H     11.895872    5.426223    6.255893    ( 0.0000,  0.0000,  0.0000)
  27 O      9.700660    3.948402    5.263427    ( 0.0000,  0.0000,  0.0000)
  28 F     11.626834    8.654746    6.961189    ( 0.0000,  0.0000,  0.0000)
  29 N     18.116854    7.887995    7.169119    ( 0.0000,  0.0000,  0.0000)
  30 N     15.955894    4.853453    7.412938    ( 0.0000,  0.0000,  0.0000)
  31 N     15.788849    8.460432    7.612080    ( 0.0000,  0.0000,  0.0000)
  32 O     18.834461    5.684087    6.971091    ( 0.0000,  0.0000,  0.0000)
  33 O     12.291903    6.253511    8.705764    ( 0.0000,  0.0000,  0.0000)
  34 O      7.768617    5.674544    5.493051    ( 0.0000,  0.0000,  0.0000)
  35 O      9.037960    5.004882    7.594141    ( 0.0000,  0.0000,  0.0000)
  36 O     10.171633    6.495965    5.788335    ( 0.0000,  0.0000,  0.0000)
  37 C     17.083272    8.751151    7.359878    ( 0.0000,  0.0000,  0.0000)
  38 C     17.857357    6.576431    7.180191    ( 0.0000,  0.0000,  0.0000)
  39 C     14.679337    5.110875    7.638364    ( 0.0000,  0.0000,  0.0000)
  40 C     16.545714    6.110988    7.395789    ( 0.0000,  0.0000,  0.0000)
  41 C     15.601561    7.126954    7.613001    ( 0.0000,  0.0000,  0.0000)
  42 N     17.409661   10.082445    7.194283    ( 0.0000,  0.0000,  0.0000)
  43 N     14.402752    6.467125    7.785829    ( 0.0000,  0.0000,  0.0000)
  44 C     20.922115    6.537241    7.905946    ( 0.0000,  0.0000,  0.0000)
  45 C     20.823121    5.104482    5.815017    ( 0.0000,  0.0000,  0.0000)
  46 C      5.012744    7.904827    5.427639    ( 0.0000,  0.0000,  0.0000)
  47 C      4.950811    7.513111    6.912847    ( 0.0000,  0.0000,  0.0000)
  48 C      6.503988    7.753637    5.054387    ( 0.0000,  0.0000,  0.0000)
  49 C      5.951436    6.359362    7.004884    ( 0.0000,  0.0000,  0.0000)
  50 C     20.160588    6.194279    6.636004    ( 0.0000,  0.0000,  0.0000)
  51 C      7.116680    6.822286    6.127966    ( 0.0000,  0.0000,  0.0000)
  52 C     10.260475    4.904575    8.358704    ( 0.0000,  0.0000,  0.0000)
  53 C     13.149343    7.737525    5.388425    ( 0.0000,  0.0000,  0.0000)
  54 C     13.125388    7.121443    7.944513    ( 0.0000,  0.0000,  0.0000)
  55 C     11.017625    6.187512    8.080520    ( 0.0000,  0.0000,  0.0000)
  56 C     11.342721    6.327050    6.595639    ( 0.0000,  0.0000,  0.0000)
  57 C     12.337381    7.482610    6.630174    ( 0.0000,  0.0000,  0.0000)
  58 P      9.201633    5.159172    5.961254    ( 0.0000,  0.0000,  0.0000)

Unit cell:
           periodic     x           y           z      points  spacing
  1. axis:    no    25.874300    0.000000    0.000000   120     0.2156
  2. axis:    no     0.000000   14.643900    0.000000    70     0.2092
  3. axis:    no     0.000000    0.000000   13.321200    63     0.2114

  Lengths:  25.874300  14.643900  13.321200
  Angles:   90.000000  90.000000  90.000000

Effective grid spacing dv^(1/3) = 0.2121

                     log10-error:    total        iterations:
           time      wfs    density  energy       poisson
iter:   1  15:00:19  -3.81         -342.022658           
iter:   2  15:00:54  -5.16  -3.14  -342.022558           
iter:   3  15:01:30  -4.85  -3.16  -342.021899           
iter:   4  15:02:04  -6.48  -3.51  -342.021885           
iter:   5  15:02:41  -5.96  -3.52  -342.021840           
iter:   6  15:03:18  -5.95  -3.73  -342.021835           
iter:   7  15:03:54  -6.51  -3.88  -342.021817           
iter:   8  15:04:31  -6.88  -4.15  -342.021817           
iter:   9  15:05:08  -7.14  -4.37  -342.021817           
iter:  10  15:05:43  -7.51  -4.37  -342.021816           

Converged after 10 iterations.

Dipole moment: (0.004132, 1.050029, 0.466950) |e|*Ang

Energy contributions relative to reference atoms: (reference = -51532.884347)

Kinetic:       +224.063281
Potential:     -230.028721
External:        +0.000000
XC:            -335.268677
Entropy (-ST):   +0.000000
Local:           -0.787700
--------------------------
Free energy:   -342.021816
Extrapolated:  -342.021816

 Band  Eigenvalues  Occupancy
    0    -29.80556    2.00000
    1    -27.35067    2.00000
    2    -26.95623    2.00000
    3    -26.76229    2.00000
    4    -25.88675    2.00000
    5    -25.75154    2.00000
    6    -25.46275    2.00000
    7    -24.31509    2.00000
    8    -23.66771    2.00000
    9    -22.28342    2.00000
   10    -21.98951    2.00000
   11    -21.52070    2.00000
   12    -20.47804    2.00000
   13    -19.91907    2.00000
   14    -19.26650    2.00000
   15    -19.20308    2.00000
   16    -18.07270    2.00000
   17    -17.37553    2.00000
   18    -17.29766    2.00000
   19    -17.22154    2.00000
   20    -17.07789    2.00000
   21    -16.52159    2.00000
   22    -16.07619    2.00000
   23    -15.59461    2.00000
   24    -15.31955    2.00000
   25    -14.92335    2.00000
   26    -14.51521    2.00000
   27    -14.20625    2.00000
   28    -13.94646    2.00000
   29    -13.79214    2.00000
   30    -13.64185    2.00000
   31    -13.39455    2.00000
   32    -13.00877    2.00000
   33    -12.93340    2.00000
   34    -12.75023    2.00000
   35    -12.62670    2.00000
   36    -12.11920    2.00000
   37    -11.89526    2.00000
   38    -11.72994    2.00000
   39    -11.60682    2.00000
   40    -11.47764    2.00000
   41    -11.24619    2.00000
   42    -11.08467    2.00000
   43    -10.91271    2.00000
   44    -10.83434    2.00000
   45    -10.73224    2.00000
   46    -10.68622    2.00000
   47    -10.41713    2.00000
   48    -10.31130    2.00000
   49    -10.23238    2.00000
   50    -10.00898    2.00000
   51     -9.87128    2.00000
   52     -9.72870    2.00000
   53     -9.67327    2.00000
   54     -9.43279    2.00000
   55     -9.42783    2.00000
   56     -9.28718    2.00000
   57     -9.21898    2.00000
   58     -9.13251    2.00000
   59     -9.06587    2.00000
   60     -8.89481    2.00000
   61     -8.87317    2.00000
   62     -8.73669    2.00000
   63     -8.70758    2.00000
   64     -8.42809    2.00000
   65     -8.33026    2.00000
   66     -8.22538    2.00000
   67     -7.87831    2.00000
   68     -7.83450    2.00000
   69     -7.80478    2.00000
   70     -7.77371    2.00000
   71     -7.66789    2.00000
   72     -7.50418    2.00000
   73     -7.44610    2.00000
   74     -7.36561    2.00000
   75     -7.26459    2.00000
   76     -7.18656    2.00000
   77     -6.91630    2.00000
   78     -6.85985    2.00000
   79     -6.72166    2.00000
   80     -6.63660    2.00000
   81     -6.43144    2.00000
   82     -6.19822    2.00000
   83     -6.06813    2.00000
   84     -5.96776    2.00000
   85     -5.71686    2.00000
   86     -5.37812    2.00000
   87     -4.56101    2.00000
   88     -0.96368    0.00000
   89     -0.36379    0.00000
   90     -0.24961    0.00000
   91     -0.17674    0.00000
   92     -0.06231    0.00000
   93      0.05933    0.00000
   94      0.26047    0.00000
   95      0.32075    0.00000
   96      0.37799    0.00000
   97      0.44310    0.00000
   98      0.54951    0.00000
   99      0.68195    0.00000
  100      0.70424    0.00000
  101      0.74598    0.00000
  102      0.75204    0.00000
  103      0.80427    0.00000
  104      0.86942    0.00000
  105      0.94413    0.00000
  106      0.99414    0.00000
  107      1.04392    0.00000
  108      1.09323    0.00000
  109      1.14301    0.00000

Fermi level: -2.76234

Gap: 3.597 eV
Transition (v -> c):
  (s=0, k=0, n=87, [0.00, 0.00, 0.00]) -> (s=0, k=0, n=88, [0.00, 0.00, 0.00])

Forces in eV/Ang:
  0 H     0.00606    0.01909   -0.00980
  1 H     0.01737   -0.00703    0.00376
  2 H    -0.01148   -0.02919    0.00893
  3 H    -0.00775   -0.02385    0.01481
  4 H    -0.00038   -0.00945   -0.00072
  5 H     0.01340    0.00707   -0.00423
  6 H     0.00736    0.00241   -0.01246
  7 H    -0.01560   -0.01966    0.00413
  8 H     0.01647   -0.00183    0.00234
  9 H     0.00759   -0.01501   -0.00480
 10 H     0.01009    0.00823   -0.00067
 11 H    -0.01047    0.01050    0.01689
 12 H     0.01343    0.00657   -0.01152
 13 H     0.00740   -0.02462    0.02018
 14 H     0.00315   -0.00737   -0.00572
 15 H    -0.02031   -0.01393   -0.00444
 16 H     0.01065    0.02114   -0.00150
 17 H     0.00173   -0.02229    0.01011
 18 H     0.01283   -0.01555   -0.00771
 19 H    -0.01591    0.02788    0.00642
 20 H    -0.01095   -0.00594   -0.02646
 21 H     0.01091    0.01373   -0.00793
 22 H    -0.00337    0.00561   -0.00533
 23 H    -0.01116   -0.00290    0.00988
 24 H     0.02353    0.01674    0.01679
 25 H     0.01228   -0.00244   -0.00342
 26 H    -0.01068    0.00477    0.02188
 27 O     0.00376   -0.02460    0.01023
 28 F     0.04352   -0.00168   -0.01777
 29 N     0.01044    0.01559    0.02101
 30 N    -0.00327    0.00381    0.01006
 31 N     0.02076   -0.00586   -0.01376
 32 O     0.04294    0.00470   -0.02261
 33 O    -0.02422   -0.01849   -0.00529
 34 O     0.02097   -0.00080    0.00867
 35 O    -0.01061    0.03161    0.02239
 36 O     0.00943    0.01489   -0.00539
 37 C     0.01930    0.00916   -0.02293
 38 C     0.03280    0.00894    0.00148
 39 C     0.00037    0.00417    0.01599
 40 C    -0.00973    0.00300   -0.01327
 41 C    -0.01202    0.01355   -0.00373
 42 N     0.02832   -0.01187    0.03097
 43 N    -0.02985    0.00485    0.01970
 44 C     0.00103   -0.00826    0.00210
 45 C    -0.00631   -0.01478    0.00166
 46 C    -0.01092   -0.00770    0.01988
 47 C     0.00073    0.01695    0.00597
 48 C    -0.02258   -0.01097   -0.00391
 49 C    -0.02212   -0.00231    0.00330
 50 C     0.03018   -0.01108    0.00057
 51 C    -0.00083   -0.00501   -0.00861
 52 C    -0.00836    0.01679   -0.00153
 53 C     0.00282    0.00078    0.01160
 54 C    -0.03249    0.02181   -0.01478
 55 C    -0.01495   -0.01197    0.01237
 56 C    -0.02361   -0.01162    0.02153
 57 C    -0.02061   -0.02232    0.01009
 58 P     0.02168   -0.01840   -0.00142

Timing:                                      incl.     excl.
-------------------------------------------------------------------
Density initialized from wave functions:   214.000   213.997   1.1% |
 Symmetrize density:                         0.003     0.003   0.0% |
Forces:                                   1013.651  1013.651   5.3% |-|
Hamiltonian:                               155.444    10.136   0.1% |
 Atomic:                                     1.950     0.079   0.0% |
  XC Correction:                             1.871     1.871   0.0% |
 Calculate atomic Hamiltonians:             91.502    91.502   0.5% |
 Communicate:                                5.508     5.508   0.0% |
 Initialize Hamiltonian:                     0.002     0.002   0.0% |
 Poisson:                                    0.260     0.260   0.0% |
 XC 3D grid:                                46.086    46.086   0.2% |
LCAO initialization:                         7.682     1.479   0.0% |
 LCAO eigensolver:                           0.155     0.000   0.0% |
  Calculate projections:                     0.000     0.000   0.0% |
  DenseAtomicCorrection:                     0.000     0.000   0.0% |
  Distribute overlap matrix:                 0.140     0.140   0.0% |
  Orbital Layouts:                           0.013     0.013   0.0% |
  Potential matrix:                          0.002     0.002   0.0% |
 LCAO to grid:                               5.685     5.685   0.0% |
 Set positions (LCAO WFS):                   0.364     0.282   0.0% |
  Basic WFS set positions:                   0.004     0.004   0.0% |
  Basis functions set positions:             0.001     0.001   0.0% |
  P tci:                                     0.001     0.001   0.0% |
  ST tci:                                    0.018     0.018   0.0% |
  mktci:                                     0.058     0.058   0.0% |
PWDescriptor:                                0.243     0.243   0.0% |
Redistribute:                                0.089     0.089   0.0% |
SCF-cycle:                               16987.119     1.345   0.0% |
 Davidson:                               13000.936  5931.272  30.9% |-----------|
  Apply H:                                1452.287  1447.486   7.6% |--|
   HMM T:                                    4.802     4.802   0.0% |
  Subspace diag:                          1701.342     0.247   0.0% |
   calc_h_matrix:                         1460.884    97.965   0.5% |
    Apply H:                              1362.920  1357.770   7.1% |--|
     HMM T:                                  5.149     5.149   0.0% |
   diagonalize:                             79.840    79.840   0.4% |
   rotate_psi:                             160.370   160.370   0.8% |
  calc. matrices:                         3612.040   936.726   4.9% |-|
   Apply H:                               2675.314  2666.170  13.9% |-----|
    HMM T:                                   9.144     9.144   0.0% |
  diagonalize:                              21.223    21.223   0.1% |
  rotate_psi:                              282.773   282.773   1.5% ||
 Density:                                 2242.421     0.037   0.0% |
  Atomic density matrices:                   4.925     4.925   0.0% |
  Mix:                                    1384.757  1384.757   7.2% |--|
  Multipole moments:                         0.673     0.673   0.0% |
  Pseudo density:                          852.028   851.977   4.4% |-|
   Symmetrize density:                       0.051     0.051   0.0% |
 Hamiltonian:                             1616.056    62.138   0.3% |
  Atomic:                                   25.871     0.984   0.0% |
   XC Correction:                           24.887    24.887   0.1% |
  Calculate atomic Hamiltonians:          1038.080  1038.080   5.4% |-|
  Communicate:                              66.679    66.679   0.3% |
  Poisson:                                   2.421     2.421   0.0% |
  XC 3D grid:                              420.866   420.866   2.2% ||
 Orthonormalize:                           126.360     0.025   0.0% |
  calc_s_matrix:                             3.732     3.732   0.0% |
  inverse-cholesky:                          1.217     1.217   0.0% |
  projections:                             118.308   118.308   0.6% |
  rotate_psi_s:                              3.079     3.079   0.0% |
Set symmetry:                                0.003     0.003   0.0% |
Other:                                     792.189   792.189   4.1% |-|
-------------------------------------------------------------------
Total:                                             19170.419 100.0%

Memory usage: 1.06 GiB
Date: Sun Jul  4 15:16:59 2021
