
  ___ ___ ___ _ _ _  
 |   |   |_  | | | | 
 | | | | | . | | | | 
 |__ |  _|___|_____|  21.6.0
 |___|_|             

User:   hanguo02@comput119.ghddi.org
Date:   Mon Jul  5 23:39:01 2021
Arch:   x86_64
Pid:    5692
Python: 3.6.8
gpaw:   /home/hanguo02/.local/lib/python3.6/site-packages/gpaw
_gpaw:  /home/hanguo02/.local/lib/python3.6/site-packages/
        _gpaw.cpython-36m-x86_64-linux-gnu.so
ase:    /home/hanguo02/.local/lib/python3.6/site-packages/ase (version 3.22.0)
numpy:  /usr/lib64/python3.6/site-packages/numpy (version 1.16.2)
scipy:  /usr/lib64/python3.6/site-packages/scipy (version 1.2.1)
libxc:  4.2.0
units:  Angstrom and eV
cores: 32
OpenMP: False
OMP_NUM_THREADS: 1

Input parameters:
  mode: {ecut: 400.0,
         gammacentered: False,
         name: pw}
  xc: PBE

System changes: positions, numbers, cell, pbc, initial_charges, initial_magmoms 

Initialize ...

H-setup:
  name: Hydrogen
  id: d65de229564ff8ea4db303e23b6d1ecf
  Z: 1.0
  valence: 1
  core: 0
  charge: 0.0
  file: /home/hanguo02/Software/GPAW/gpaw-setups-0.9.20000/H.PBE.gz
  compensation charges: gauss, rc=0.15, lmax=2
  cutoffs: 0.85(filt), 0.53(core),
  valence states:
                energy  radius
    1s(1.00)    -6.494   0.476
    *s          20.717   0.476
    *p           0.000   0.476

  Using partial waves for H as LCAO basis

O-setup:
  name: Oxygen
  id: 32ecd46bf208036f09c70b0ec9a88b78
  Z: 8.0
  valence: 6
  core: 2
  charge: 0.0
  file: /home/hanguo02/Software/GPAW/gpaw-setups-0.9.20000/O.PBE.gz
  compensation charges: gauss, rc=0.21, lmax=2
  cutoffs: 1.17(filt), 0.83(core),
  valence states:
                energy  radius
    2s(2.00)   -23.961   0.688
    2p(4.00)    -9.029   0.598
    *s           3.251   0.688
    *p          18.182   0.598
    *d           0.000   0.619

  Using partial waves for O as LCAO basis

N-setup:
  name: Nitrogen
  id: f7500608b86eaa90eef8b1d9a670dc53
  Z: 7.0
  valence: 5
  core: 2
  charge: 0.0
  file: /home/hanguo02/Software/GPAW/gpaw-setups-0.9.20000/N.PBE.gz
  compensation charges: gauss, rc=0.18, lmax=2
  cutoffs: 1.11(filt), 0.96(core),
  valence states:
                energy  radius
    2s(2.00)   -18.583   0.603
    2p(3.00)    -7.089   0.529
    *s           8.629   0.603
    *p          20.123   0.529
    *d           0.000   0.577

  Using partial waves for N as LCAO basis

C-setup:
  name: Carbon
  id: 4aa54d4b901d75f77cc0ea3eec22967b
  Z: 6.0
  valence: 4
  core: 2
  charge: 0.0
  file: /home/hanguo02/Software/GPAW/gpaw-setups-0.9.20000/C.PBE.gz
  compensation charges: gauss, rc=0.20, lmax=2
  cutoffs: 1.14(filt), 1.14(core),
  valence states:
                energy  radius
    2s(2.00)   -13.751   0.635
    2p(2.00)    -5.284   0.635
    *s          13.461   0.635
    *p          21.927   0.635
    *d           0.000   0.635

  Using partial waves for C as LCAO basis

Reference energy: -69988.991683

Spin-paired calculation

Convergence criteria:
  Maximum total energy change: 0.0005 eV / electron
  Maximum integral of absolute density change: 0.0001 electrons
  Maximum integral of absolute eigenstate change: 4e-08 eV^2
  Maximum number of iterations: 333

Symmetries present (total): 1

  ( 1  0  0)
  ( 0  1  0)
  ( 0  0  1)

1 k-point (Gamma)
1 k-point in the irreducible part of the Brillouin zone
       k-points in crystal coordinates                weights
   0:     0.00000000    0.00000000    0.00000000          1/1

Wave functions: Plane wave expansion
  Cutoff energy: 400.000 eV
  Number of coefficients: 183831 (reduced to 91916)
  Pulay-stress correction: 0.000000 eV/Ang^3 (de/decut=0.000000)
  Using Numpy's FFT
  ScaLapack parameters: grid=1x1, blocksize=None
  Wavefunction extrapolation:
    Improved wavefunction reuse through dual PAW basis 

Occupation numbers: width=0.000 eV 

Eigensolver
   Davidson(niter=2) 

Densities:
  Coarse grid: 160*90*72 grid
  Fine grid: 320*180*144 grid
  Total Charge: 0.000000 

Density mixing:
  Method: separate
  Backend: pulay
  Linear mixing parameter: 0.05
  Mixing with 5 old densities
  Damping of long wave oscillations: 50 

Hamiltonian:
  XC and Coulomb potentials evaluated on a 320*180*144 grid
  Using the PBE Exchange-Correlation functional
 

XC parameters: PBE with 2 nearest neighbor stencil

Memory estimate:
  Process memory now: 1028.62 MiB
  Calculator: 582.39 MiB
    Density: 19.68 MiB
      Arrays: 6.44 MiB
      Localized functions: 10.72 MiB
      Mixer: 2.53 MiB
    Hamiltonian: 4.52 MiB
      Arrays: 4.21 MiB
      XC: 0.00 MiB
      Poisson: 0.00 MiB
      vbar: 0.31 MiB
    Wavefunctions: 558.19 MiB
      Arrays psit_nG: 263.68 MiB
      Eigensolver: 273.39 MiB
      Projections: 0.05 MiB
      Projectors: 0.59 MiB
      PW-descriptor: 20.49 MiB

Total number of cores used: 32
Domain decomposition: 4 x 4 x 2

Number of atoms: 112
Number of atomic orbitals: 286
Number of bands in calculation: 188
Number of valence electrons: 306
Bands to converge: occupied

... initialized

Initializing position-dependent things.

Density initialized from atomic densities
Creating initial wave functions:
  188 bands from LCAO basis set

             .------------------------------------------------------------------------------------.  
            /|                                                                                    |  
           / |                                                                                    |  
          /  |                                                                                    |  
         /   |                                                                                    |  
        /    |                                                                                    |  
       /     |                                                                                    |  
      /      |                                                                                    |  
     /       |                                                                                    |  
    /        |             H                                                                      |  
   /         |               C H                                                                  |  
  /          |        H     OH                  H                     H H   H H                   |  
 *           |    H C      C                          H              H C     C                    |  
 |           |             H         H     H    C   C                     C  HH                   |  
 |           |       C   C         C  C CCC   C          H              O  C                      |  
 |           |  H  H H   H     CNN  C   H            C  C C     H       C                         |  
 |           |     C      CC                   C  C     H C   C N  H  N     ONH                   |  
 |           |     H      OH                 H               CHC  C CCH       C                   |  
 |           |         H  C                        H          H        H       O                  |  
 |           .-------------C-H---H----------------------------HC---CC---------H-C--H--------------.  
 |          /            H     H                                  H H H         H                /   
 |         /              H    H                              H                                 /    
 |        /                                                                                    /     
 |       /                                                                                    /      
 |      /                                                                                    /       
 |     /                                                                                    /        
 |    /                                                                                    /         
 |   /                                                                                    /          
 |  /                                                                                    /           
 | /                                                                                    /            
 |/                                                                                    /             
 *------------------------------------------------------------------------------------*              

Positions:
   0 H     16.677900    9.055300   11.268500    ( 0.0000,  0.0000,  0.0000)
   1 H     15.632300    8.195100    7.172300    ( 0.0000,  0.0000,  0.0000)
   2 H     18.964200    9.622500   10.555200    ( 0.0000,  0.0000,  0.0000)
   3 H     17.887800    8.767100    6.466500    ( 0.0000,  0.0000,  0.0000)
   4 H     15.484100    6.576400   11.043300    ( 0.0000,  0.0000,  0.0000)
   5 H     19.534000   10.871300    6.465100    ( 0.0000,  0.0000,  0.0000)
   6 H     13.322800    5.484500   11.558900    ( 0.0000,  0.0000,  0.0000)
   7 H     21.824200   10.978500    5.517900    ( 0.0000,  0.0000,  0.0000)
   8 H     13.486800    9.404800    8.423500    ( 0.0000,  0.0000,  0.0000)
   9 H     20.847800    7.981200    9.416100    ( 0.0000,  0.0000,  0.0000)
  10 H      6.855000   10.917700    7.647800    ( 0.0000,  0.0000,  0.0000)
  11 H     29.211900    8.203900    8.005000    ( 0.0000,  0.0000,  0.0000)
  12 H     10.697500    8.704300    8.219800    ( 0.0000,  0.0000,  0.0000)
  13 H     23.654400    7.421200    9.020900    ( 0.0000,  0.0000,  0.0000)
  14 H      7.358400   14.849900    9.027500    ( 0.0000,  0.0000,  0.0000)
  15 H      8.634900   13.985400    9.897300    ( 0.0000,  0.0000,  0.0000)
  16 H      6.928300   13.983700   10.512900    ( 0.0000,  0.0000,  0.0000)
  17 H     30.487200   10.343900    4.717900    ( 0.0000,  0.0000,  0.0000)
  18 H     28.759500   10.103100    4.305900    ( 0.0000,  0.0000,  0.0000)
  19 H     29.937700    8.820900    4.000000    ( 0.0000,  0.0000,  0.0000)
  20 H      4.000000    8.211300    8.470300    ( 0.0000,  0.0000,  0.0000)
  21 H      4.699100    9.747900    7.962100    ( 0.0000,  0.0000,  0.0000)
  22 H      5.215400    8.231600    7.197100    ( 0.0000,  0.0000,  0.0000)
  23 H      5.153800   10.065600   10.498100    ( 0.0000,  0.0000,  0.0000)
  24 H      4.680300    8.413200   10.917100    ( 0.0000,  0.0000,  0.0000)
  25 H      6.315100    8.985300   11.314600    ( 0.0000,  0.0000,  0.0000)
  26 H     27.018400   12.553100    9.503400    ( 0.0000,  0.0000,  0.0000)
  27 H     28.252300   11.573900   10.321000    ( 0.0000,  0.0000,  0.0000)
  28 H     28.335300   11.820900    8.575400    ( 0.0000,  0.0000,  0.0000)
  29 H     25.091900    9.503000   10.286200    ( 0.0000,  0.0000,  0.0000)
  30 H     25.206300   11.241800   10.473800    ( 0.0000,  0.0000,  0.0000)
  31 H     26.355700   10.194600   11.342900    ( 0.0000,  0.0000,  0.0000)
  32 H      6.187000    7.444400    9.305400    ( 0.0000,  0.0000,  0.0000)
  33 H     26.180900   10.518800    8.296200    ( 0.0000,  0.0000,  0.0000)
  34 H     11.084300    4.000000    6.983800    ( 0.0000,  0.0000,  0.0000)
  35 H     11.054200    5.062900    5.565500    ( 0.0000,  0.0000,  0.0000)
  36 H     11.406000    5.726200    7.174300    ( 0.0000,  0.0000,  0.0000)
  37 H     23.768300    4.045800    6.378800    ( 0.0000,  0.0000,  0.0000)
  38 H     23.194400    5.552400    7.079200    ( 0.0000,  0.0000,  0.0000)
  39 H     23.710000    4.226800    8.130700    ( 0.0000,  0.0000,  0.0000)
  40 H      7.858200    6.516600    5.849100    ( 0.0000,  0.0000,  0.0000)
  41 H      9.534500    7.120500    5.769100    ( 0.0000,  0.0000,  0.0000)
  42 H     26.779000    5.192200    8.805900    ( 0.0000,  0.0000,  0.0000)
  43 H     25.132600    5.648100    9.309900    ( 0.0000,  0.0000,  0.0000)
  44 H      7.826300    4.767600    8.335700    ( 0.0000,  0.0000,  0.0000)
  45 H      9.466000    4.425000    8.897100    ( 0.0000,  0.0000,  0.0000)
  46 H     26.528800    6.286900    5.666900    ( 0.0000,  0.0000,  0.0000)
  47 H     24.787300    6.533800    5.434200    ( 0.0000,  0.0000,  0.0000)
  48 H      8.103500    9.093900    9.620700    ( 0.0000,  0.0000,  0.0000)
  49 H     28.371500    9.181000    9.964700    ( 0.0000,  0.0000,  0.0000)
  50 H      8.176200    6.737200    9.611400    ( 0.0000,  0.0000,  0.0000)
  51 H     26.418300    8.390900    6.641200    ( 0.0000,  0.0000,  0.0000)
  52 H      8.798900    4.424100    6.242400    ( 0.0000,  0.0000,  0.0000)
  53 H     25.984800    4.411500    6.828700    ( 0.0000,  0.0000,  0.0000)
  54 O      8.123500   11.468200   10.477200    ( 0.0000,  0.0000,  0.0000)
  55 O     27.882700   10.580400    6.461700    ( 0.0000,  0.0000,  0.0000)
  56 O      7.808500    9.140200    6.429600    ( 0.0000,  0.0000,  0.0000)
  57 O     26.965800    7.272300   10.481000    ( 0.0000,  0.0000,  0.0000)
  58 N     10.939400    6.252300   10.241700    ( 0.0000,  0.0000,  0.0000)
  59 N     23.892100    9.294400    6.468600    ( 0.0000,  0.0000,  0.0000)
  60 O      7.254300   12.806900    8.834400    ( 0.0000,  0.0000,  0.0000)
  61 O     29.510400    9.048700    5.985000    ( 0.0000,  0.0000,  0.0000)
  62 C      7.584900   11.617700    9.394000    ( 0.0000,  0.0000,  0.0000)
  63 C     28.581100    9.634800    6.778900    ( 0.0000,  0.0000,  0.0000)
  64 C      7.940200    8.573400    7.523100    ( 0.0000,  0.0000,  0.0000)
  65 C     26.922000    7.783200    9.352400    ( 0.0000,  0.0000,  0.0000)
  66 C     16.936900    8.999700   10.209600    ( 0.0000,  0.0000,  0.0000)
  67 C     16.341900    8.544500    7.923500    ( 0.0000,  0.0000,  0.0000)
  68 C     18.243200    9.321600    9.803500    ( 0.0000,  0.0000,  0.0000)
  69 C     17.637900    8.870200    7.520600    ( 0.0000,  0.0000,  0.0000)
  70 C     14.575100    6.985200   10.602600    ( 0.0000,  0.0000,  0.0000)
  71 C     20.318400   10.269500    6.925000    ( 0.0000,  0.0000,  0.0000)
  72 C     15.974200    8.574900    9.280100    ( 0.0000,  0.0000,  0.0000)
  73 C     18.620700    9.233100    8.454900    ( 0.0000,  0.0000,  0.0000)
  74 C     14.653100    8.067400    9.697500    ( 0.0000,  0.0000,  0.0000)
  75 C     20.012200    9.421600    8.008700    ( 0.0000,  0.0000,  0.0000)
  76 C     13.360100    6.340600   10.893900    ( 0.0000,  0.0000,  0.0000)
  77 C     21.609500   10.337200    6.370700    ( 0.0000,  0.0000,  0.0000)
  78 C     13.465900    8.557900    9.105200    ( 0.0000,  0.0000,  0.0000)
  79 C     21.043800    8.659900    8.594200    ( 0.0000,  0.0000,  0.0000)
  80 C     10.259000    6.934900    9.334800    ( 0.0000,  0.0000,  0.0000)
  81 C     24.392600    8.372600    7.272000    ( 0.0000,  0.0000,  0.0000)
  82 C     12.205200    6.772100   10.227000    ( 0.0000,  0.0000,  0.0000)
  83 C     22.603100    9.507100    6.898400    ( 0.0000,  0.0000,  0.0000)
  84 C     12.274700    7.873800    9.378900    ( 0.0000,  0.0000,  0.0000)
  85 C     22.307700    8.716300    7.998800    ( 0.0000,  0.0000,  0.0000)
  86 N      7.195000   10.627700    8.557200    ( 0.0000,  0.0000,  0.0000)
  87 N     28.567300    8.980400    7.973400    ( 0.0000,  0.0000,  0.0000)
  88 N      8.556300    7.347700    7.611800    ( 0.0000,  0.0000,  0.0000)
  89 N     26.220600    7.149700    8.351900    ( 0.0000,  0.0000,  0.0000)
  90 N     10.994500    8.019300    8.905600    ( 0.0000,  0.0000,  0.0000)
  91 N     23.490700    8.074100    8.268100    ( 0.0000,  0.0000,  0.0000)
  92 C      7.566800   13.956600    9.626000    ( 0.0000,  0.0000,  0.0000)
  93 C     29.667100    9.621300    4.688100    ( 0.0000,  0.0000,  0.0000)
  94 C      4.926100    8.692400    8.145500    ( 0.0000,  0.0000,  0.0000)
  95 C      5.519400    9.028100   10.560600    ( 0.0000,  0.0000,  0.0000)
  96 C     27.639500   11.653800    9.410100    ( 0.0000,  0.0000,  0.0000)
  97 C     25.805600   10.324400   10.399500    ( 0.0000,  0.0000,  0.0000)
  98 C      6.023000    8.520700    9.202400    ( 0.0000,  0.0000,  0.0000)
  99 C     26.774600   10.395300    9.212300    ( 0.0000,  0.0000,  0.0000)
 100 C     10.795800    4.996800    6.630800    ( 0.0000,  0.0000,  0.0000)
 101 C     23.921700    4.752700    7.197600    ( 0.0000,  0.0000,  0.0000)
 102 C      8.811200    6.585400    6.397300    ( 0.0000,  0.0000,  0.0000)
 103 C     25.878400    5.742400    8.508800    ( 0.0000,  0.0000,  0.0000)
 104 C      8.864500    5.125800    8.306300    ( 0.0000,  0.0000,  0.0000)
 105 C     25.571500    6.438300    6.198800    ( 0.0000,  0.0000,  0.0000)
 106 C      7.365100    9.205200    8.814900    ( 0.0000,  0.0000,  0.0000)
 107 C     27.660700    9.127200    9.119400    ( 0.0000,  0.0000,  0.0000)
 108 C      8.898600    6.576100    8.808800    ( 0.0000,  0.0000,  0.0000)
 109 C     25.719800    7.682500    7.094200    ( 0.0000,  0.0000,  0.0000)
 110 C      9.296000    5.197600    6.834800    ( 0.0000,  0.0000,  0.0000)
 111 C     25.364400    5.255700    7.153900    ( 0.0000,  0.0000,  0.0000)

Unit cell:
           periodic     x           y           z      points  spacing
  1. axis:    no    34.487200    0.000000    0.000000   160     0.2155
  2. axis:    no     0.000000   18.849900    0.000000    90     0.2094
  3. axis:    no     0.000000    0.000000   15.558900    72     0.2161

  Lengths:  34.487200  18.849900  15.558900
  Angles:   90.000000  90.000000  90.000000

Effective grid spacing dv^(1/3) = 0.2137

                     log10-error:    total        iterations:
           time      wfs    density  energy       poisson
iter:   1  23:42:01                -723.723655           
iter:   2  23:44:19  -0.80  -0.71  -717.397993           
iter:   3  23:46:38  -0.67  -0.73  -679.756724           
iter:   4  23:48:56  -1.70  -1.04  -678.176703           
iter:   5  23:51:13  -1.49  -1.10  -676.006289           
iter:   6  23:53:34  -1.10  -1.41  -678.370977           
iter:   7  23:55:54  -1.96  -1.36  -674.957066           
iter:   8  23:58:11  -1.83  -1.65  -674.499113           
iter:   9  00:00:31  -2.74  -2.06  -674.368978           
iter:  10  00:02:50  -3.00  -2.18  -674.379480           
iter:  11  00:05:08  -2.93  -2.27  -674.350882           
iter:  12  00:07:25  -3.70  -2.50  -674.330449           
iter:  13  00:09:42  -4.33  -2.73  -674.332410           
iter:  14  00:12:02  -4.58  -2.80  -674.337029           
iter:  15  00:14:18  -4.20  -2.70  -674.330887           
iter:  16  00:16:38  -5.16  -3.02  -674.331466           
iter:  17  00:18:58  -4.94  -3.00  -674.329989           
iter:  18  00:21:14  -5.45  -3.57  -674.329954           
iter:  19  00:23:35  -6.12  -3.76  -674.329927           
iter:  20  00:25:52  -6.89  -3.86  -674.329916           
iter:  21  00:28:12  -6.47  -3.92  -674.329926           
iter:  22  00:30:31  -6.75  -3.95  -674.329905           
iter:  23  00:32:48  -7.54  -4.18  -674.329904           

Converged after 23 iterations.

Dipole moment: (-0.077800, -1.108658, -0.733608) |e|*Ang

Energy contributions relative to reference atoms: (reference = -69988.991683)

Kinetic:       +530.963975
Potential:     -557.616962
External:        +0.000000
XC:            -646.865569
Entropy (-ST):   +0.000000
Local:           -0.811347
--------------------------
Free energy:   -674.329904
Extrapolated:  -674.329904

 Band  Eigenvalues  Occupancy
    0    -27.50332    2.00000
    1    -27.30097    2.00000
    2    -25.91916    2.00000
    3    -25.73962    2.00000
    4    -25.47471    2.00000
    5    -25.39977    2.00000
    6    -25.02517    2.00000
    7    -24.84720    2.00000
    8    -23.85193    2.00000
    9    -23.68742    2.00000
   10    -23.15394    2.00000
   11    -22.97067    2.00000
   12    -21.79705    2.00000
   13    -21.68343    2.00000
   14    -21.07153    2.00000
   15    -20.68793    2.00000
   16    -20.28817    2.00000
   17    -20.07532    2.00000
   18    -19.97401    2.00000
   19    -19.65331    2.00000
   20    -19.54352    2.00000
   21    -19.23283    2.00000
   22    -19.00301    2.00000
   23    -18.55387    2.00000
   24    -17.98629    2.00000
   25    -17.93393    2.00000
   26    -17.89654    2.00000
   27    -17.81171    2.00000
   28    -17.71951    2.00000
   29    -17.70634    2.00000
   30    -17.15387    2.00000
   31    -17.11671    2.00000
   32    -16.93040    2.00000
   33    -16.49877    2.00000
   34    -16.46942    2.00000
   35    -16.42510    2.00000
   36    -16.11787    2.00000
   37    -15.94526    2.00000
   38    -15.78812    2.00000
   39    -15.18894    2.00000
   40    -15.10046    2.00000
   41    -15.02646    2.00000
   42    -14.60304    2.00000
   43    -14.57927    2.00000
   44    -14.39737    2.00000
   45    -14.34537    2.00000
   46    -14.24592    2.00000
   47    -14.22571    2.00000
   48    -14.00227    2.00000
   49    -13.94841    2.00000
   50    -13.85832    2.00000
   51    -13.61955    2.00000
   52    -13.54261    2.00000
   53    -13.42207    2.00000
   54    -13.33799    2.00000
   55    -13.01259    2.00000
   56    -12.98109    2.00000
   57    -12.87240    2.00000
   58    -12.81781    2.00000
   59    -12.30158    2.00000
   60    -12.22363    2.00000
   61    -12.09641    2.00000
   62    -11.97635    2.00000
   63    -11.79685    2.00000
   64    -11.75373    2.00000
   65    -11.59851    2.00000
   66    -11.40705    2.00000
   67    -11.31199    2.00000
   68    -11.28022    2.00000
   69    -11.19504    2.00000
   70    -11.15053    2.00000
   71    -11.02616    2.00000
   72    -10.91988    2.00000
   73    -10.74978    2.00000
   74    -10.71950    2.00000
   75    -10.69196    2.00000
   76    -10.65835    2.00000
   77    -10.57267    2.00000
   78    -10.51087    2.00000
   79    -10.44848    2.00000
   80    -10.39496    2.00000
   81    -10.34309    2.00000
   82    -10.25997    2.00000
   83    -10.22781    2.00000
   84    -10.20428    2.00000
   85    -10.18103    2.00000
   86    -10.03287    2.00000
   87     -9.96359    2.00000
   88     -9.94594    2.00000
   89     -9.90070    2.00000
   90     -9.89016    2.00000
   91     -9.79240    2.00000
   92     -9.76960    2.00000
   93     -9.68957    2.00000
   94     -9.62733    2.00000
   95     -9.58349    2.00000
   96     -9.53446    2.00000
   97     -9.49557    2.00000
   98     -9.41907    2.00000
   99     -9.26712    2.00000
  100     -9.21804    2.00000
  101     -9.18685    2.00000
  102     -9.10790    2.00000
  103     -9.07218    2.00000
  104     -8.90278    2.00000
  105     -8.84835    2.00000
  106     -8.81458    2.00000
  107     -8.69422    2.00000
  108     -8.62311    2.00000
  109     -8.62167    2.00000
  110     -8.47676    2.00000
  111     -8.38896    2.00000
  112     -8.32092    2.00000
  113     -8.18987    2.00000
  114     -8.13786    2.00000
  115     -8.07294    2.00000
  116     -8.04406    2.00000
  117     -7.99973    2.00000
  118     -7.99007    2.00000
  119     -7.96553    2.00000
  120     -7.92243    2.00000
  121     -7.85368    2.00000
  122     -7.80784    2.00000
  123     -7.72242    2.00000
  124     -7.67876    2.00000
  125     -7.62394    2.00000
  126     -7.60239    2.00000
  127     -7.57189    2.00000
  128     -7.49831    2.00000
  129     -7.46624    2.00000
  130     -7.41311    2.00000
  131     -7.38911    2.00000
  132     -7.34694    2.00000
  133     -7.01367    2.00000
  134     -6.91627    2.00000
  135     -6.51267    2.00000
  136     -6.41712    2.00000
  137     -5.95394    2.00000
  138     -5.94207    2.00000
  139     -5.86931    2.00000
  140     -5.82699    2.00000
  141     -5.80260    2.00000
  142     -5.74957    2.00000
  143     -5.68820    2.00000
  144     -5.66475    2.00000
  145     -5.57204    2.00000
  146     -5.50604    2.00000
  147     -5.35351    2.00000
  148     -5.18700    2.00000
  149     -5.10605    2.00000
  150     -5.09207    2.00000
  151     -4.96483    2.00000
  152     -4.66174    2.00000
  153     -1.33654    0.00000
  154     -1.06224    0.00000
  155     -0.75035    0.00000
  156     -0.67476    0.00000
  157     -0.63430    0.00000
  158     -0.49681    0.00000
  159     -0.41786    0.00000
  160     -0.40279    0.00000
  161     -0.12281    0.00000
  162     -0.09981    0.00000
  163      0.01631    0.00000
  164      0.04646    0.00000
  165      0.10885    0.00000
  166      0.13413    0.00000
  167      0.19706    0.00000
  168      0.23279    0.00000
  169      0.28740    0.00000
  170      0.34642    0.00000
  171      0.38389    0.00000
  172      0.39649    0.00000
  173      0.44111    0.00000
  174      0.45838    0.00000
  175      0.52397    0.00000
  176      0.56705    0.00000
  177      0.65341    0.00000
  178      0.66528    0.00000
  179      0.68191    0.00000
  180      0.73315    0.00000
  181      0.75606    0.00000
  182      0.77222    0.00000
  183      0.79775    0.00000
  184      0.82410    0.00000
  185      0.86983    0.00000
  186      0.89401    0.00000
  187      0.90490    0.00000

Fermi level: -2.99914

Gap: 3.325 eV
Transition (v -> c):
  (s=0, k=0, n=152, [0.00, 0.00, 0.00]) -> (s=0, k=0, n=153, [0.00, 0.00, 0.00])

Forces in eV/Ang:
  0 H    -0.05533    0.01699    0.08769
  1 H    -0.15169   -0.02773   -0.02300
  2 H     0.28806    0.13306    0.18293
  3 H     0.17832    0.04327   -0.17872
  4 H     0.19004    0.08740    0.03049
  5 H    -0.16084    0.05872    0.06906
  6 H     0.00599   -0.21656    0.20000
  7 H     0.01359    0.11985   -0.11948
  8 H     0.08417    0.17068   -0.14291
  9 H    -0.16714   -0.17552    0.28115
 10 H    -0.16489   -0.05164   -0.73477
 11 H     0.52623   -0.68687    0.24627
 12 H    -0.20264    0.32904   -0.53806
 13 H     0.07048   -0.55985    0.58356
 14 H    -0.16209   -0.07634   -0.31984
 15 H    -0.09514   -0.16978    0.16859
 16 H     0.02693   -0.03060    0.35357
 17 H     0.15438    0.29479   -0.04726
 18 H    -0.17421    0.09825    0.26082
 19 H     0.14068   -0.38953   -0.06195
 20 H    -0.21217   -0.13158    0.16988
 21 H    -0.01755    0.22827   -0.02367
 22 H     0.04595   -0.03834   -0.32533
 23 H     0.10364    0.04233   -0.02340
 24 H    -0.06930   -0.07863   -0.02293
 25 H     0.07163    0.06331    0.16726
 26 H    -0.15743    0.05410    0.00137
 27 H    -0.03459   -0.06358    0.19473
 28 H    -0.05192   -0.00758   -0.10415
 29 H    -0.12467   -0.26332    0.12565
 30 H     0.08556    0.16531   -0.08644
 31 H    -0.04214   -0.07338    0.11675
 32 H     0.29366   -0.37844    0.01008
 33 H     0.05444   -0.05743   -0.16459
 34 H     0.12631   -0.17872    0.04687
 35 H     0.05154    0.02876   -0.12967
 36 H     0.09507    0.17523    0.10437
 37 H    -0.20736   -0.18185   -0.23905
 38 H    -0.30633    0.38154    0.03530
 39 H    -0.08053   -0.21317    0.26629
 40 H     0.02523    0.09403   -0.24308
 41 H     0.07386   -0.02604   -0.24662
 42 H     0.08164   -0.07601    0.33252
 43 H    -0.10149   -0.34954    0.19031
 44 H    -0.20714    0.01364    0.15035
 45 H     0.13635    0.14326    0.17765
 46 H    -0.06901    0.14020   -0.05783
 47 H    -0.04791    0.09464    0.07436
 48 H    -0.07142    0.10917    0.26952
 49 H    -0.37247   -0.10267    0.32900
 50 H    -0.33841   -0.00801    0.19834
 51 H     0.02530    0.27150   -0.03372
 52 H    -0.29107   -0.14834   -0.06418
 53 H     0.14820   -0.07881   -0.03400
 54 O     0.67105    0.15063    0.83017
 55 O    -0.61249    0.64179   -0.28937
 56 O    -0.35926    0.02571   -0.16438
 57 O     0.17341   -0.20557    0.19722
 58 N    -0.60966   -1.28537   -0.29945
 59 N     0.76054    0.04759   -0.90304
 60 O     0.33911    0.79569   -0.13499
 61 O     0.42845   -0.51812   -0.47513
 62 C    -0.18937   -0.29532   -0.17749
 63 C    -0.16897   -0.17204    0.55161
 64 C     0.08479   -0.17401    0.40863
 65 C    -0.57895    0.38834    0.16994
 66 C     0.47281   -0.04490   -0.25956
 67 C     0.27521    0.14960    0.09746
 68 C    -0.68447   -0.30714   -0.06936
 69 C    -0.36405   -0.03215    0.22540
 70 C    -0.77949   -0.43776    0.24043
 71 C     0.80877    0.07409   -0.57492
 72 C     0.16868    0.09257   -0.01234
 73 C    -0.15225    0.02307    0.07700
 74 C    -0.67950    0.18576   -0.24834
 75 C     0.49826   -0.24906    0.19276
 76 C     0.55403    0.43907   -0.34761
 77 C    -0.73614   -0.08543    0.18600
 78 C     0.23566   -0.43095    0.22756
 79 C    -0.00961    0.26210   -0.34119
 80 C     0.53059    0.67159    0.66825
 81 C    -0.32667    0.71840    0.23391
 82 C     0.61224   -0.29069    0.91339
 83 C    -0.26170    0.75929   -0.81233
 84 C     0.63414    0.96291   -0.27868
 85 C    -0.44500   -0.15024    1.04522
 86 N    -0.18768   -0.73094    0.55994
 87 N    -0.60228    0.87142   -0.13933
 88 N    -0.01509    0.19296    0.29377
 89 N     0.78020    0.12849   -0.14336
 90 N    -0.23058   -0.30632   -0.75877
 91 N     0.26754   -0.65258   -0.13364
 92 C     0.21250    0.06480   -0.06464
 93 C     0.13570    0.11196   -0.15647
 94 C     0.37468   -0.08789   -0.00200
 95 C     0.11584   -0.02575   -0.05663
 96 C     0.32128   -0.21086   -0.34951
 97 C     0.11520   -0.31374   -0.15108
 98 C    -0.57133    0.44609    0.27925
 99 C     0.09303    0.59896    0.18569
100 C    -0.07427   -0.08702   -0.01584
101 C     0.29257   -0.18787   -0.17118
102 C    -0.22907   -0.05282   -0.39938
103 C     0.04813    0.11260    0.23656
104 C    -0.42501   -0.27660   -0.21520
105 C     0.75405   -0.20874   -0.22376
106 C     0.02915    0.25188   -0.65458
107 C     0.30093   -0.27519   -0.10510
108 C     0.20289    0.08341    0.09080
109 C    -0.42250    0.23642   -0.05943
110 C     0.53371    0.35354    0.12295
111 C    -0.46977   -0.10067    0.03466

System changes: positions 

Initializing position-dependent things.

Density initialized from wave functions
             .------------------------------------------------------------------------------------.  
            /|                                                                                    |  
           / |                                                                                    |  
          /  |                                                                                    |  
         /   |                                                                                    |  
        /    |                                                                                    |  
       /     |                                                                                    |  
      /      |                                                                                    |  
     /       |                                                                                    |  
    /        |             H                                                                      |  
   /         |               C H                                                                  |  
  /          |        H     OH                  H                     H H   H H                   |  
 *           |    H C      C                          H              H C     C                    |  
 |           |             H         H     H    C   C                     C  HH                   |  
 |           |       C   C         C  C CCC   C          H              O  C                      |  
 |           |  H  H H   H     CNN  C   H            C  C C     H       C                         |  
 |           |     C      CC                   C  C     H C   C N  H  N     ONH                   |  
 |           |     H      OH                 H               CHC  C CCH       C                   |  
 |           |         H  C                        H          H        H        O                 |  
 |           .-------------C-H---H----------------------------HC---CC---------H-C--H--------------.  
 |          /            H     H                                  H H H                          /   
 |         /             H     H                              H                 H               /    
 |        /                                                                                    /     
 |       /                                                                                    /      
 |      /                                                                                    /       
 |     /                                                                                    /        
 |    /                                                                                    /         
 |   /                                                                                    /          
 |  /                                                                                    /           
 | /                                                                                    /            
 |/                                                                                    /             
 *------------------------------------------------------------------------------------*              

Positions:
   0 H     16.677110    9.055543   11.269753    ( 0.0000,  0.0000,  0.0000)
   1 H     15.630133    8.194704    7.171971    ( 0.0000,  0.0000,  0.0000)
   2 H     18.968315    9.624401   10.557813    ( 0.0000,  0.0000,  0.0000)
   3 H     17.890347    8.767718    6.463947    ( 0.0000,  0.0000,  0.0000)
   4 H     15.486815    6.577649   11.043736    ( 0.0000,  0.0000,  0.0000)
   5 H     19.531702   10.872139    6.466087    ( 0.0000,  0.0000,  0.0000)
   6 H     13.322886    5.481406   11.561757    ( 0.0000,  0.0000,  0.0000)
   7 H     21.824394   10.980212    5.516193    ( 0.0000,  0.0000,  0.0000)
   8 H     13.488002    9.407238    8.421458    ( 0.0000,  0.0000,  0.0000)
   9 H     20.845412    7.978693    9.420116    ( 0.0000,  0.0000,  0.0000)
  10 H      6.852644   10.916962    7.637303    ( 0.0000,  0.0000,  0.0000)
  11 H     29.219418    8.194088    8.008518    ( 0.0000,  0.0000,  0.0000)
  12 H     10.694605    8.709001    8.212113    ( 0.0000,  0.0000,  0.0000)
  13 H     23.655407    7.413202    9.029237    ( 0.0000,  0.0000,  0.0000)
  14 H      7.356084   14.848809    9.022931    ( 0.0000,  0.0000,  0.0000)
  15 H      8.633541   13.982975    9.899708    ( 0.0000,  0.0000,  0.0000)
  16 H      6.928685   13.983263   10.517951    ( 0.0000,  0.0000,  0.0000)
  17 H     30.489405   10.348111    4.717225    ( 0.0000,  0.0000,  0.0000)
  18 H     28.757011   10.104504    4.309626    ( 0.0000,  0.0000,  0.0000)
  19 H     29.939710    8.815335    3.999115    ( 0.0000,  0.0000,  0.0000)
  20 H      3.996969    8.209420    8.472727    ( 0.0000,  0.0000,  0.0000)
  21 H      4.698849    9.751161    7.961762    ( 0.0000,  0.0000,  0.0000)
  22 H      5.216056    8.231052    7.192452    ( 0.0000,  0.0000,  0.0000)
  23 H      5.155281   10.066205   10.497766    ( 0.0000,  0.0000,  0.0000)
  24 H      4.679310    8.412077   10.916772    ( 0.0000,  0.0000,  0.0000)
  25 H      6.316123    8.986204   11.316989    ( 0.0000,  0.0000,  0.0000)
  26 H     27.016151   12.553873    9.503420    ( 0.0000,  0.0000,  0.0000)
  27 H     28.251806   11.572992   10.323782    ( 0.0000,  0.0000,  0.0000)
  28 H     28.334558   11.820792    8.573912    ( 0.0000,  0.0000,  0.0000)
  29 H     25.090119    9.499238   10.287995    ( 0.0000,  0.0000,  0.0000)
  30 H     25.207522   11.244162   10.472565    ( 0.0000,  0.0000,  0.0000)
  31 H     26.355098   10.193552   11.344568    ( 0.0000,  0.0000,  0.0000)
  32 H      6.191195    7.438994    9.305544    ( 0.0000,  0.0000,  0.0000)
  33 H     26.181678   10.517980    8.293849    ( 0.0000,  0.0000,  0.0000)
  34 H     11.086104    3.997447    6.984470    ( 0.0000,  0.0000,  0.0000)
  35 H     11.054936    5.063311    5.563648    ( 0.0000,  0.0000,  0.0000)
  36 H     11.407358    5.728703    7.175791    ( 0.0000,  0.0000,  0.0000)
  37 H     23.765338    4.043202    6.375385    ( 0.0000,  0.0000,  0.0000)
  38 H     23.190024    5.557851    7.079704    ( 0.0000,  0.0000,  0.0000)
  39 H     23.708850    4.223755    8.134504    ( 0.0000,  0.0000,  0.0000)
  40 H      7.858560    6.517943    5.845627    ( 0.0000,  0.0000,  0.0000)
  41 H      9.535555    7.120128    5.765577    ( 0.0000,  0.0000,  0.0000)
  42 H     26.780166    5.191114    8.810650    ( 0.0000,  0.0000,  0.0000)
  43 H     25.131150    5.643107    9.312619    ( 0.0000,  0.0000,  0.0000)
  44 H      7.823341    4.767795    8.337848    ( 0.0000,  0.0000,  0.0000)
  45 H      9.467948    4.427047    8.899638    ( 0.0000,  0.0000,  0.0000)
  46 H     26.527814    6.288903    5.666074    ( 0.0000,  0.0000,  0.0000)
  47 H     24.786616    6.535152    5.435262    ( 0.0000,  0.0000,  0.0000)
  48 H      8.102480    9.095460    9.624550    ( 0.0000,  0.0000,  0.0000)
  49 H     28.366179    9.179533    9.969400    ( 0.0000,  0.0000,  0.0000)
  50 H      8.171366    6.737086    9.614233    ( 0.0000,  0.0000,  0.0000)
  51 H     26.418661    8.394779    6.640718    ( 0.0000,  0.0000,  0.0000)
  52 H      8.794742    4.421981    6.241483    ( 0.0000,  0.0000,  0.0000)
  53 H     25.986917    4.410374    6.828214    ( 0.0000,  0.0000,  0.0000)
  54 O      8.133086   11.470352   10.489060    ( 0.0000,  0.0000,  0.0000)
  55 O     27.873950   10.589568    6.457566    ( 0.0000,  0.0000,  0.0000)
  56 O      7.803368    9.140567    6.427252    ( 0.0000,  0.0000,  0.0000)
  57 O     26.968277    7.269363   10.483817    ( 0.0000,  0.0000,  0.0000)
  58 N     10.930691    6.233938   10.237422    ( 0.0000,  0.0000,  0.0000)
  59 N     23.902965    9.295080    6.455699    ( 0.0000,  0.0000,  0.0000)
  60 O      7.259144   12.818267    8.832472    ( 0.0000,  0.0000,  0.0000)
  61 O     29.516521    9.041298    5.978212    ( 0.0000,  0.0000,  0.0000)
  62 C      7.582195   11.613481    9.391464    ( 0.0000,  0.0000,  0.0000)
  63 C     28.578686    9.632342    6.786780    ( 0.0000,  0.0000,  0.0000)
  64 C      7.941411    8.570914    7.528938    ( 0.0000,  0.0000,  0.0000)
  65 C     26.913729    7.788748    9.354828    ( 0.0000,  0.0000,  0.0000)
  66 C     16.943654    8.999059   10.205892    ( 0.0000,  0.0000,  0.0000)
  67 C     16.345832    8.546637    7.924892    ( 0.0000,  0.0000,  0.0000)
  68 C     18.233422    9.317212    9.802509    ( 0.0000,  0.0000,  0.0000)
  69 C     17.632699    8.869741    7.523820    ( 0.0000,  0.0000,  0.0000)
  70 C     14.563964    6.978946   10.606035    ( 0.0000,  0.0000,  0.0000)
  71 C     20.329954   10.270558    6.916787    ( 0.0000,  0.0000,  0.0000)
  72 C     15.976610    8.576222    9.279924    ( 0.0000,  0.0000,  0.0000)
  73 C     18.618525    9.233430    8.456000    ( 0.0000,  0.0000,  0.0000)
  74 C     14.643393    8.070054    9.693952    ( 0.0000,  0.0000,  0.0000)
  75 C     20.019318    9.418042    8.011454    ( 0.0000,  0.0000,  0.0000)
  76 C     13.368015    6.346872   10.888934    ( 0.0000,  0.0000,  0.0000)
  77 C     21.598984   10.335980    6.373357    ( 0.0000,  0.0000,  0.0000)
  78 C     13.469267    8.551744    9.108451    ( 0.0000,  0.0000,  0.0000)
  79 C     21.043663    8.663644    8.589326    ( 0.0000,  0.0000,  0.0000)
  80 C     10.266580    6.944494    9.344346    ( 0.0000,  0.0000,  0.0000)
  81 C     24.387933    8.382863    7.275342    ( 0.0000,  0.0000,  0.0000)
  82 C     12.213946    6.767947   10.240048    ( 0.0000,  0.0000,  0.0000)
  83 C     22.599361    9.517947    6.886795    ( 0.0000,  0.0000,  0.0000)
  84 C     12.283759    7.887556    9.374919    ( 0.0000,  0.0000,  0.0000)
  85 C     22.301343    8.714154    8.013732    ( 0.0000,  0.0000,  0.0000)
  86 N      7.192319   10.617258    8.565199    ( 0.0000,  0.0000,  0.0000)
  87 N     28.558696    8.992849    7.971410    ( 0.0000,  0.0000,  0.0000)
  88 N      8.556084    7.350457    7.615997    ( 0.0000,  0.0000,  0.0000)
  89 N     26.231746    7.151536    8.349852    ( 0.0000,  0.0000,  0.0000)
  90 N     10.991206    8.014924    8.894760    ( 0.0000,  0.0000,  0.0000)
  91 N     23.494522    8.064777    8.266191    ( 0.0000,  0.0000,  0.0000)
  92 C      7.569836   13.957526    9.625077    ( 0.0000,  0.0000,  0.0000)
  93 C     29.669039    9.622899    4.685865    ( 0.0000,  0.0000,  0.0000)
  94 C      4.931453    8.691144    8.145471    ( 0.0000,  0.0000,  0.0000)
  95 C      5.521055    9.027732   10.559791    ( 0.0000,  0.0000,  0.0000)
  96 C     27.644090   11.650788    9.405107    ( 0.0000,  0.0000,  0.0000)
  97 C     25.807246   10.319918   10.397342    ( 0.0000,  0.0000,  0.0000)
  98 C      6.014838    8.527073    9.206389    ( 0.0000,  0.0000,  0.0000)
  99 C     26.775929   10.403857    9.214953    ( 0.0000,  0.0000,  0.0000)
 100 C     10.794739    4.995557    6.630574    ( 0.0000,  0.0000,  0.0000)
 101 C     23.925880    4.750016    7.195155    ( 0.0000,  0.0000,  0.0000)
 102 C      8.807928    6.584645    6.391595    ( 0.0000,  0.0000,  0.0000)
 103 C     25.879088    5.744009    8.512179    ( 0.0000,  0.0000,  0.0000)
 104 C      8.858428    5.121849    8.303226    ( 0.0000,  0.0000,  0.0000)
 105 C     25.582272    6.435318    6.195603    ( 0.0000,  0.0000,  0.0000)
 106 C      7.365516    9.208798    8.805549    ( 0.0000,  0.0000,  0.0000)
 107 C     27.664999    9.123269    9.117899    ( 0.0000,  0.0000,  0.0000)
 108 C      8.901498    6.577292    8.810097    ( 0.0000,  0.0000,  0.0000)
 109 C     25.713764    7.685877    7.093351    ( 0.0000,  0.0000,  0.0000)
 110 C      9.303624    5.202651    6.836556    ( 0.0000,  0.0000,  0.0000)
 111 C     25.357689    5.254262    7.154395    ( 0.0000,  0.0000,  0.0000)

Unit cell:
           periodic     x           y           z      points  spacing
  1. axis:    no    34.487200    0.000000    0.000000   160     0.2155
  2. axis:    no     0.000000   18.849900    0.000000    90     0.2094
  3. axis:    no     0.000000    0.000000   15.558900    72     0.2161

  Lengths:  34.487200  18.849900  15.558900
  Angles:   90.000000  90.000000  90.000000

Effective grid spacing dv^(1/3) = 0.2137

                     log10-error:    total        iterations:
           time      wfs    density  energy       poisson
iter:   1  00:37:00  -2.24         -674.709875           
iter:   2  00:39:18  -3.63  -2.24  -674.685297           
iter:   3  00:41:36  -2.76  -2.26  -674.601066           
iter:   4  00:43:54  -4.14  -2.64  -674.590882           
iter:   5  00:46:14  -4.27  -2.68  -674.589389           
iter:   6  00:48:32  -3.89  -2.77  -674.584749           
iter:   7  00:50:51  -4.87  -3.03  -674.582812           
iter:   8  00:53:08  -5.44  -3.38  -674.582827           
iter:   9  00:55:27  -5.83  -3.53  -674.582860           
iter:  10  00:57:43  -5.46  -3.52  -674.582885           
iter:  11  01:00:00  -7.05  -3.79  -674.582840           
iter:  12  01:02:16  -6.22  -3.87  -674.582809           
iter:  13  01:04:32  -6.49  -4.00  -674.582826           
iter:  14  01:06:46  -7.26  -4.08  -674.582812           
iter:  15  01:09:06  -6.72  -4.28  -674.582812           
iter:  16  01:11:25  -7.36  -4.36  -674.582809           
iter:  17  01:13:42  -8.09  -4.57  -674.582808           

Converged after 17 iterations.

Dipole moment: (-0.091746, -1.142910, -0.710124) |e|*Ang

Energy contributions relative to reference atoms: (reference = -69988.991683)

Kinetic:       +518.855460
Potential:     -548.916587
External:        +0.000000
XC:            -643.758517
Entropy (-ST):   +0.000000
Local:           -0.763164
--------------------------
Free energy:   -674.582808
Extrapolated:  -674.582808

 Band  Eigenvalues  Occupancy
    0    -27.32295    2.00000
    1    -27.18881    2.00000
    2    -25.83675    2.00000
    3    -25.70388    2.00000
    4    -25.39936    2.00000
    5    -25.32994    2.00000
    6    -24.85541    2.00000
    7    -24.69118    2.00000
    8    -23.80714    2.00000
    9    -23.64676    2.00000
   10    -23.21944    2.00000
   11    -23.02989    2.00000
   12    -21.77312    2.00000
   13    -21.68657    2.00000
   14    -21.12451    2.00000
   15    -20.76133    2.00000
   16    -20.36986    2.00000
   17    -20.08998    2.00000
   18    -19.98335    2.00000
   19    -19.66368    2.00000
   20    -19.55355    2.00000
   21    -19.18519    2.00000
   22    -18.96685    2.00000
   23    -18.55974    2.00000
   24    -17.99330    2.00000
   25    -17.98431    2.00000
   26    -17.96961    2.00000
   27    -17.95156    2.00000
   28    -17.79999    2.00000
   29    -17.68965    2.00000
   30    -17.15735    2.00000
   31    -17.10224    2.00000
   32    -16.93811    2.00000
   33    -16.48372    2.00000
   34    -16.47197    2.00000
   35    -16.42577    2.00000
   36    -16.13041    2.00000
   37    -15.95026    2.00000
   38    -15.79141    2.00000
   39    -15.14473    2.00000
   40    -15.04587    2.00000
   41    -15.04032    2.00000
   42    -14.62809    2.00000
   43    -14.59906    2.00000
   44    -14.40533    2.00000
   45    -14.38084    2.00000
   46    -14.23902    2.00000
   47    -14.21402    2.00000
   48    -13.96944    2.00000
   49    -13.92796    2.00000
   50    -13.86457    2.00000
   51    -13.57556    2.00000
   52    -13.52480    2.00000
   53    -13.40755    2.00000
   54    -13.31421    2.00000
   55    -13.01106    2.00000
   56    -12.93849    2.00000
   57    -12.86871    2.00000
   58    -12.81658    2.00000
   59    -12.30498    2.00000
   60    -12.22902    2.00000
   61    -12.12500    2.00000
   62    -11.97835    2.00000
   63    -11.80851    2.00000
   64    -11.74203    2.00000
   65    -11.58647    2.00000
   66    -11.38510    2.00000
   67    -11.29098    2.00000
   68    -11.25635    2.00000
   69    -11.18453    2.00000
   70    -11.16882    2.00000
   71    -11.00385    2.00000
   72    -10.91294    2.00000
   73    -10.74049    2.00000
   74    -10.70667    2.00000
   75    -10.66242    2.00000
   76    -10.62599    2.00000
   77    -10.56128    2.00000
   78    -10.50026    2.00000
   79    -10.42419    2.00000
   80    -10.36373    2.00000
   81    -10.33210    2.00000
   82    -10.25917    2.00000
   83    -10.22371    2.00000
   84    -10.19407    2.00000
   85    -10.17600    2.00000
   86    -10.04575    2.00000
   87     -9.97540    2.00000
   88     -9.96113    2.00000
   89     -9.88669    2.00000
   90     -9.87100    2.00000
   91     -9.76261    2.00000
   92     -9.73551    2.00000
   93     -9.68780    2.00000
   94     -9.60544    2.00000
   95     -9.57763    2.00000
   96     -9.54195    2.00000
   97     -9.51313    2.00000
   98     -9.42501    2.00000
   99     -9.27937    2.00000
  100     -9.15988    2.00000
  101     -9.15113    2.00000
  102     -9.09038    2.00000
  103     -9.07733    2.00000
  104     -8.89595    2.00000
  105     -8.83964    2.00000
  106     -8.79584    2.00000
  107     -8.65391    2.00000
  108     -8.60656    2.00000
  109     -8.59219    2.00000
  110     -8.50710    2.00000
  111     -8.41696    2.00000
  112     -8.34604    2.00000
  113     -8.19590    2.00000
  114     -8.10303    2.00000
  115     -8.03421    2.00000
  116     -8.01815    2.00000
  117     -7.97446    2.00000
  118     -7.95152    2.00000
  119     -7.89342    2.00000
  120     -7.87715    2.00000
  121     -7.87153    2.00000
  122     -7.78910    2.00000
  123     -7.70560    2.00000
  124     -7.68339    2.00000
  125     -7.66331    2.00000
  126     -7.61513    2.00000
  127     -7.57628    2.00000
  128     -7.53659    2.00000
  129     -7.48243    2.00000
  130     -7.43829    2.00000
  131     -7.39293    2.00000
  132     -7.35647    2.00000
  133     -7.02875    2.00000
  134     -6.96088    2.00000
  135     -6.44088    2.00000
  136     -6.36060    2.00000
  137     -6.00338    2.00000
  138     -5.94137    2.00000
  139     -5.89740    2.00000
  140     -5.86302    2.00000
  141     -5.78187    2.00000
  142     -5.75536    2.00000
  143     -5.71491    2.00000
  144     -5.68314    2.00000
  145     -5.55102    2.00000
  146     -5.53218    2.00000
  147     -5.35669    2.00000
  148     -5.23522    2.00000
  149     -5.16726    2.00000
  150     -5.10841    2.00000
  151     -5.01991    2.00000
  152     -4.67976    2.00000
  153     -1.30801    0.00000
  154     -0.99699    0.00000
  155     -0.73648    0.00000
  156     -0.67382    0.00000
  157     -0.64433    0.00000
  158     -0.49855    0.00000
  159     -0.43261    0.00000
  160     -0.40297    0.00000
  161     -0.14328    0.00000
  162     -0.13639    0.00000
  163     -0.01747    0.00000
  164      0.03891    0.00000
  165      0.10053    0.00000
  166      0.12947    0.00000
  167      0.19426    0.00000
  168      0.21911    0.00000
  169      0.26451    0.00000
  170      0.32306    0.00000
  171      0.37139    0.00000
  172      0.38439    0.00000
  173      0.41704    0.00000
  174      0.44730    0.00000
  175      0.51135    0.00000
  176      0.55499    0.00000
  177      0.63019    0.00000
  178      0.64413    0.00000
  179      0.65829    0.00000
  180      0.68016    0.00000
  181      0.69596    0.00000
  182      0.73167    0.00000
  183      0.74783    0.00000
  184      0.78764    0.00000
  185      0.79868    0.00000
  186      0.82997    0.00000
  187      0.86596    0.00000

Fermi level: -2.99389

Gap: 3.372 eV
Transition (v -> c):
  (s=0, k=0, n=152, [0.00, 0.00, 0.00]) -> (s=0, k=0, n=153, [0.00, 0.00, 0.00])

Forces in eV/Ang:
  0 H     0.02303    0.00980   -0.10853
  1 H    -0.02028    0.04064    0.09651
  2 H    -0.02873   -0.00032   -0.09288
  3 H     0.09105    0.05630    0.04232
  4 H    -0.04670    0.15376   -0.05037
  5 H     0.01366   -0.03677    0.12069
  6 H     0.06359    0.08309   -0.03539
  7 H    -0.08654    0.01138    0.03528
  8 H     0.11260   -0.06505    0.03744
  9 H    -0.12822    0.04552    0.02544
 10 H     0.09793   -0.28525   -0.02297
 11 H    -0.18553    0.21988    0.14514
 12 H    -0.23255    0.17893   -0.40233
 13 H     0.11900   -0.37384    0.33531
 14 H    -0.11976   -0.07049   -0.24919
 15 H     0.02153   -0.12979    0.18422
 16 H     0.12851   -0.01948    0.19108
 17 H     0.11077    0.24671   -0.06139
 18 H    -0.12419    0.07143    0.25431
 19 H     0.10826   -0.23184   -0.02655
 20 H    -0.00938   -0.02354    0.07404
 21 H     0.01140    0.06803   -0.00930
 22 H     0.06117   -0.01233   -0.22123
 23 H     0.09887    0.02601    0.00024
 24 H    -0.01142   -0.02737   -0.04080
 25 H     0.04331    0.05348    0.11012
 26 H    -0.00609   -0.10067   -0.03004
 27 H    -0.05843   -0.05120    0.08828
 28 H     0.05797    0.00106   -0.22835
 29 H    -0.07405   -0.22533    0.09112
 30 H     0.15367    0.00187   -0.07925
 31 H    -0.05799   -0.07704    0.07003
 32 H     0.20160    0.00585   -0.00715
 33 H     0.11228   -0.03612   -0.07301
 34 H     0.09337   -0.10972    0.02413
 35 H     0.03158    0.01991   -0.06436
 36 H     0.03997    0.06782    0.02870
 37 H    -0.18201   -0.14275   -0.19290
 38 H    -0.07336    0.10440    0.06425
 39 H    -0.03049   -0.12469    0.08237
 40 H    -0.08179    0.07355   -0.27239
 41 H     0.01353   -0.02914   -0.21138
 42 H     0.02060   -0.04699    0.29740
 43 H    -0.05898   -0.26983    0.16709
 44 H    -0.30322   -0.02475    0.11404
 45 H     0.04454    0.17722    0.10164
 46 H     0.24318    0.08106   -0.19078
 47 H     0.10250    0.06116    0.14571
 48 H    -0.22686    0.11372    0.06892
 49 H    -0.29002   -0.12248    0.29768
 50 H    -0.18316   -0.02801    0.06966
 51 H    -0.09308    0.20333    0.00243
 52 H    -0.09467    0.09177    0.09572
 53 H     0.05486    0.00952    0.03097
 54 O     0.07523    0.26228   -0.27505
 55 O     0.03032   -0.22365    0.01070
 56 O    -0.26571   -0.21111    0.26546
 57 O     0.07376   -0.04119   -0.01314
 58 N     0.35733   -0.62965   -0.15712
 59 N    -0.06998    0.23900   -0.48961
 60 O     0.34922   -0.03283   -0.13821
 61 O    -0.05469   -0.25209    0.03039
 62 C     0.37951   -0.01158    0.84436
 63 C    -0.47206    0.77908   -0.58610
 64 C    -0.05305    0.17360   -0.20618
 65 C    -0.27575    0.19498    0.36718
 66 C    -0.26245   -0.18268    0.19964
 67 C    -0.26514   -0.03029    0.02550
 68 C     0.34124    0.01340    0.10936
 69 C     0.18145    0.06307   -0.15857
 70 C     0.35393    0.24216   -0.13020
 71 C    -0.40992   -0.10601    0.10039
 72 C    -0.09171    0.00455    0.01864
 73 C    -0.01055   -0.00197   -0.03930
 74 C     0.11353   -0.22326    0.22100
 75 C     0.01239    0.22130   -0.26023
 76 C    -0.01905   -0.57915    0.41660
 77 C     0.15777    0.31210   -0.61130
 78 C     0.16781    0.45754   -0.43580
 79 C    -0.18933   -0.32499    0.48528
 80 C    -0.11444    0.15447    0.33828
 81 C     0.09879    0.32440    0.08007
 82 C    -0.40869    0.35292   -0.06779
 83 C     0.22182   -0.24093    0.18694
 84 C    -0.40662   -0.30211    0.38719
 85 C     0.62178    0.40893   -0.29601
 86 N    -0.52297    0.16385   -0.34684
 87 N     0.33640   -0.54694    0.30146
 88 N     0.05404   -0.00281    0.06969
 89 N     0.47677   -0.00849   -0.25385
 90 N     0.52917    0.05284   -0.55727
 91 N    -0.31529   -0.46025    0.09807
 92 C     0.01529    0.21286    0.14640
 93 C     0.15445    0.01824   -0.21677
 94 C    -0.06428   -0.00522   -0.05236
 95 C    -0.00580    0.05289    0.11884
 96 C     0.11218    0.08912   -0.00565
 97 C    -0.00287   -0.06121   -0.01690
 98 C    -0.10530   -0.13942    0.08729
 99 C     0.07428    0.17869   -0.01822
100 C     0.19059    0.00032    0.03048
101 C    -0.21479   -0.04670   -0.05163
102 C     0.01690    0.09885   -0.12618
103 C     0.04563    0.06532    0.16934
104 C    -0.02900   -0.05845   -0.03173
105 C     0.03455   -0.01895   -0.03465
106 C     0.13083   -0.14408    0.04311
107 C    -0.09038    0.11072    0.05052
108 C     0.09199    0.09294    0.26365
109 C    -0.10603    0.24005   -0.07002
110 C    -0.00444   -0.03842   -0.13581
111 C     0.05267   -0.09210   -0.00339

System changes: positions 

Initializing position-dependent things.

Density initialized from wave functions
             .------------------------------------------------------------------------------------.  
            /|                                                                                    |  
           / |                                                                                    |  
          /  |                                                                                    |  
         /   |                                                                                    |  
        /    |                                                                                    |  
       /     |                                                                                    |  
      /      |                                                                                    |  
     /       |                                                                                    |  
    /        |             H                                                                      |  
   /         |               C H                                                                  |  
  /          |        H     OH                  H                     H H   H H                   |  
 *           |    H C      C                          H              H C     C                    |  
 |           |             H         H     H    C   C                     C  HH                   |  
 |           |       C   C         C  C CCC   C          H              O  C                      |  
 |           |  H  H H   H     CNN  C   H            C  C C     H       C                         |  
 |           |     C      CC                   C  C     H C   C N  H  N     ONH                   |  
 |           |     H      OH                 H               CHC  C CCH       C                   |  
 |           |         H  C                        H          H        H        O                 |  
 |           .-------------C-H---H----------------------------HC---CC---------H-C--H--------------.  
 |          /            H     H                                  H H H                          /   
 |         /             H     H                              H                 H               /    
 |        /                                                                                    /     
 |       /                                                                                    /      
 |      /                                                                                    /       
 |     /                                                                                    /        
 |    /                                                                                    /         
 |   /                                                                                    /          
 |  /                                                                                    /           
 | /                                                                                    /            
 |/                                                                                    /             
 *------------------------------------------------------------------------------------*              

Positions:
   0 H     16.677145    9.055766   11.268696    ( 0.0000,  0.0000,  0.0000)
   1 H     15.629069    8.195126    7.173194    ( 0.0000,  0.0000,  0.0000)
   2 H     18.969400    9.625082   10.557465    ( 0.0000,  0.0000,  0.0000)
   3 H     17.892532    8.768724    6.463614    ( 0.0000,  0.0000,  0.0000)
   4 H     15.487145    6.580236   11.043193    ( 0.0000,  0.0000,  0.0000)
   5 H     19.531063   10.871930    6.468120    ( 0.0000,  0.0000,  0.0000)
   6 H     13.323800    5.481445   11.562296    ( 0.0000,  0.0000,  0.0000)
   7 H     21.823261   10.980988    5.516068    ( 0.0000,  0.0000,  0.0000)
   8 H     13.490001    9.407214    8.421243    ( 0.0000,  0.0000,  0.0000)
   9 H     20.842769    7.978421    9.421919    ( 0.0000,  0.0000,  0.0000)
  10 H      6.853156   10.912731    7.633198    ( 0.0000,  0.0000,  0.0000)
  11 H     29.219551    8.193604    8.011805    ( 0.0000,  0.0000,  0.0000)
  12 H     10.690328    8.713183    8.203748    ( 0.0000,  0.0000,  0.0000)
  13 H     23.657424    7.405121    9.036905    ( 0.0000,  0.0000,  0.0000)
  14 H      7.353584   14.847436    9.017819    ( 0.0000,  0.0000,  0.0000)
  15 H      8.633350   13.980295    9.903138    ( 0.0000,  0.0000,  0.0000)
  16 H      6.930610   13.982834   10.522429    ( 0.0000,  0.0000,  0.0000)
  17 H     30.491741   10.353060    4.716128    ( 0.0000,  0.0000,  0.0000)
  18 H     28.754387   10.106003    4.314505    ( 0.0000,  0.0000,  0.0000)
  19 H     29.941940    8.810105    3.998427    ( 0.0000,  0.0000,  0.0000)
  20 H      3.995745    8.208415    8.474631    ( 0.0000,  0.0000,  0.0000)
  21 H      4.698917    9.753283    7.961511    ( 0.0000,  0.0000,  0.0000)
  22 H      5.217143    8.230683    7.187701    ( 0.0000,  0.0000,  0.0000)
  23 H      5.157189   10.066784   10.497648    ( 0.0000,  0.0000,  0.0000)
  24 H      4.678794    8.411291   10.916087    ( 0.0000,  0.0000,  0.0000)
  25 H      6.317094    8.987274   11.319382    ( 0.0000,  0.0000,  0.0000)
  26 H     27.015255   12.552752    9.503009    ( 0.0000,  0.0000,  0.0000)
  27 H     28.250815   11.571952   10.326013    ( 0.0000,  0.0000,  0.0000)
  28 H     28.335097   11.820767    8.570201    ( 0.0000,  0.0000,  0.0000)
  29 H     25.088447    9.494749   10.289909    ( 0.0000,  0.0000,  0.0000)
  30 H     25.210099   11.245040   10.471018    ( 0.0000,  0.0000,  0.0000)
  31 H     26.354075   10.192103   11.346143    ( 0.0000,  0.0000,  0.0000)
  32 H      6.195511    7.437125    9.305497    ( 0.0000,  0.0000,  0.0000)
  33 H     26.183519   10.517182    8.291986    ( 0.0000,  0.0000,  0.0000)
  34 H     11.088053    3.995001    6.985046    ( 0.0000,  0.0000,  0.0000)
  35 H     11.055641    5.063736    5.562085    ( 0.0000,  0.0000,  0.0000)
  36 H     11.408404    5.730549    7.176728    ( 0.0000,  0.0000,  0.0000)
  37 H     23.761739    4.040281    6.371472    ( 0.0000,  0.0000,  0.0000)
  38 H     23.187426    5.561268    7.080779    ( 0.0000,  0.0000,  0.0000)
  39 H     23.708011    4.220923    8.137021    ( 0.0000,  0.0000,  0.0000)
  40 H      7.857554    6.519450    5.840589    ( 0.0000,  0.0000,  0.0000)
  41 H      9.536124    7.119589    5.761368    ( 0.0000,  0.0000,  0.0000)
  42 H     26.780873    5.190069    8.816498    ( 0.0000,  0.0000,  0.0000)
  43 H     25.129807    5.637555    9.315922    ( 0.0000,  0.0000,  0.0000)
  44 H      7.818059    4.767521    8.340208    ( 0.0000,  0.0000,  0.0000)
  45 H      9.469270    4.430248    8.901966    ( 0.0000,  0.0000,  0.0000)
  46 H     26.530839    6.290752    5.663124    ( 0.0000,  0.0000,  0.0000)
  47 H     24.787793    6.536490    5.437671    ( 0.0000,  0.0000,  0.0000)
  48 H      8.098958    9.097603    9.626897    ( 0.0000,  0.0000,  0.0000)
  49 H     28.360228    9.177302    9.975233    ( 0.0000,  0.0000,  0.0000)
  50 H      8.167076    6.736655    9.616224    ( 0.0000,  0.0000,  0.0000)
  51 H     26.417498    8.399004    6.640578    ( 0.0000,  0.0000,  0.0000)
  52 H      8.791926    4.422492    6.242483    ( 0.0000,  0.0000,  0.0000)
  53 H     25.988443    4.410100    6.828470    ( 0.0000,  0.0000,  0.0000)
  54 O      8.137590   11.474774   10.489514    ( 0.0000,  0.0000,  0.0000)
  55 O     27.871215   10.589767    6.456224    ( 0.0000,  0.0000,  0.0000)
  56 O      7.797823    9.137765    6.430095    ( 0.0000,  0.0000,  0.0000)
  57 O     26.970196    7.267731   10.484651    ( 0.0000,  0.0000,  0.0000)
  58 N     10.932516    6.218562   10.233695    ( 0.0000,  0.0000,  0.0000)
  59 N     23.905911    9.298647    6.444240    ( 0.0000,  0.0000,  0.0000)
  60 O      7.265746   12.821911    8.829855    ( 0.0000,  0.0000,  0.0000)
  61 O     29.517969    9.035124    5.976186    ( 0.0000,  0.0000,  0.0000)
  62 C      7.586494   11.611798    9.402287    ( 0.0000,  0.0000,  0.0000)
  63 C     28.571254    9.642285    6.781476    ( 0.0000,  0.0000,  0.0000)
  64 C      7.941111    8.572431    7.528177    ( 0.0000,  0.0000,  0.0000)
  65 C     26.906913    7.793459    9.360807    ( 0.0000,  0.0000,  0.0000)
  66 C     16.942443    8.996288   10.207329    ( 0.0000,  0.0000,  0.0000)
  67 C     16.343564    8.546987    7.925749    ( 0.0000,  0.0000,  0.0000)
  68 C     18.234638    9.315816    9.803672    ( 0.0000,  0.0000,  0.0000)
  69 C     17.633346    8.870452    7.522777    ( 0.0000,  0.0000,  0.0000)
  70 C     14.564867    6.980056   10.605464    ( 0.0000,  0.0000,  0.0000)
  71 C     20.328424   10.269467    6.915220    ( 0.0000,  0.0000,  0.0000)
  72 C     15.976204    8.576763    9.280119    ( 0.0000,  0.0000,  0.0000)
  73 C     18.617594    9.233521    8.455851    ( 0.0000,  0.0000,  0.0000)
  74 C     14.641469    8.067908    9.695744    ( 0.0000,  0.0000,  0.0000)
  75 C     20.022058    9.419835    8.008830    ( 0.0000,  0.0000,  0.0000)
  76 C     13.370605    6.341085   10.892934    ( 0.0000,  0.0000,  0.0000)
  77 C     21.597383   10.339878    6.365819    ( 0.0000,  0.0000,  0.0000)
  78 C     13.472814    8.555883    9.103566    ( 0.0000,  0.0000,  0.0000)
  79 C     21.040981    8.660477    8.594313    ( 0.0000,  0.0000,  0.0000)
  80 C     10.267723    6.950102    9.352492    ( 0.0000,  0.0000,  0.0000)
  81 C     24.387623    8.391074    7.277660    ( 0.0000,  0.0000,  0.0000)
  82 C     12.211420    6.771355   10.243813    ( 0.0000,  0.0000,  0.0000)
  83 C     22.601096    9.518511    6.885208    ( 0.0000,  0.0000,  0.0000)
  84 C     12.281375    7.888318    9.378865    ( 0.0000,  0.0000,  0.0000)
  85 C     22.307693    8.719064    8.015003    ( 0.0000,  0.0000,  0.0000)
  86 N      7.184082   10.615769    8.563264    ( 0.0000,  0.0000,  0.0000)
  87 N     28.560268    8.989737    7.974882    ( 0.0000,  0.0000,  0.0000)
  88 N      8.556758    7.351412    7.618479    ( 0.0000,  0.0000,  0.0000)
  89 N     26.242393    7.152080    8.345585    ( 0.0000,  0.0000,  0.0000)
  90 N     10.997373    8.014080    8.883104    ( 0.0000,  0.0000,  0.0000)
  91 N     23.491518    8.055017    8.266865    ( 0.0000,  0.0000,  0.0000)
  92 C      7.571143   13.960818    9.626779    ( 0.0000,  0.0000,  0.0000)
  93 C     29.671885    9.623730    4.682045    ( 0.0000,  0.0000,  0.0000)
  94 C      4.932490    8.690619    8.144733    ( 0.0000,  0.0000,  0.0000)
  95 C      5.521571    9.028335   10.561151    ( 0.0000,  0.0000,  0.0000)
  96 C     27.647305   11.650940    9.403227    ( 0.0000,  0.0000,  0.0000)
  97 C     25.807799   10.317450   10.396328    ( 0.0000,  0.0000,  0.0000)
  98 C      6.010430    8.527434    9.209042    ( 0.0000,  0.0000,  0.0000)
  99 C     26.777441   10.409427    9.215656    ( 0.0000,  0.0000,  0.0000)
 100 C     10.797006    4.995113    6.630916    ( 0.0000,  0.0000,  0.0000)
 101 C     23.924402    4.748399    7.193555    ( 0.0000,  0.0000,  0.0000)
 102 C      8.806982    6.585747    6.387783    ( 0.0000,  0.0000,  0.0000)
 103 C     25.879970    5.745497    8.515752    ( 0.0000,  0.0000,  0.0000)
 104 C      8.855835    5.119611    8.301676    ( 0.0000,  0.0000,  0.0000)
 105 C     25.586638    6.433979    6.193969    ( 0.0000,  0.0000,  0.0000)
 106 C      7.367485    9.208094    8.802775    ( 0.0000,  0.0000,  0.0000)
 107 C     27.665293    9.123390    9.118059    ( 0.0000,  0.0000,  0.0000)
 108 C      8.903823    6.579013    8.814230    ( 0.0000,  0.0000,  0.0000)
 109 C     25.710113    7.690432    7.092071    ( 0.0000,  0.0000,  0.0000)
 110 C      9.306313    5.203938    6.835302    ( 0.0000,  0.0000,  0.0000)
 111 C     25.356000    5.252463    7.154527    ( 0.0000,  0.0000,  0.0000)

Unit cell:
           periodic     x           y           z      points  spacing
  1. axis:    no    34.487200    0.000000    0.000000   160     0.2155
  2. axis:    no     0.000000   18.849900    0.000000    90     0.2094
  3. axis:    no     0.000000    0.000000   15.558900    72     0.2161

  Lengths:  34.487200  18.849900  15.558900
  Angles:   90.000000  90.000000  90.000000

Effective grid spacing dv^(1/3) = 0.2137

                     log10-error:    total        iterations:
           time      wfs    density  energy       poisson
iter:   1  01:17:56  -2.67         -674.745887           
iter:   2  01:20:14  -4.01  -2.53  -674.737617           
iter:   3  01:22:34  -3.52  -2.56  -674.713318           
iter:   4  01:24:53  -4.89  -2.86  -674.713421           
iter:   5  01:27:15  -4.75  -2.86  -674.712507           
iter:   6  01:29:33  -4.38  -3.01  -674.710152           
iter:   7  01:31:53  -5.70  -3.34  -674.709911           
iter:   8  01:34:12  -5.96  -3.48  -674.709841           
iter:   9  01:36:33  -6.66  -3.75  -674.709847           
iter:  10  01:38:50  -5.98  -3.80  -674.709844           
iter:  11  01:41:09  -7.53  -4.09  -674.709833           

Converged after 11 iterations.

Dipole moment: (-0.090098, -1.109923, -0.694121) |e|*Ang

Energy contributions relative to reference atoms: (reference = -69988.991683)

Kinetic:       +511.718829
Potential:     -543.623170
External:        +0.000000
XC:            -642.002193
Entropy (-ST):   +0.000000
Local:           -0.803299
--------------------------
Free energy:   -674.709833
Extrapolated:  -674.709833

 Band  Eigenvalues  Occupancy
    0    -27.25496    2.00000
    1    -27.12837    2.00000
    2    -25.86085    2.00000
    3    -25.69015    2.00000
    4    -25.37481    2.00000
    5    -25.30053    2.00000
    6    -24.98828    2.00000
    7    -24.79561    2.00000
    8    -23.77179    2.00000
    9    -23.60331    2.00000
   10    -23.16022    2.00000
   11    -23.00066    2.00000
   12    -21.78037    2.00000
   13    -21.70239    2.00000
   14    -21.11380    2.00000
   15    -20.73854    2.00000
   16    -20.34296    2.00000
   17    -20.05338    2.00000
   18    -19.94431    2.00000
   19    -19.62500    2.00000
   20    -19.52505    2.00000
   21    -19.16132    2.00000
   22    -18.93563    2.00000
   23    -18.53297    2.00000
   24    -17.97627    2.00000
   25    -17.94515    2.00000
   26    -17.92585    2.00000
   27    -17.92179    2.00000
   28    -17.78536    2.00000
   29    -17.66632    2.00000
   30    -17.11485    2.00000
   31    -17.05855    2.00000
   32    -16.92115    2.00000
   33    -16.46061    2.00000
   34    -16.43283    2.00000
   35    -16.38636    2.00000
   36    -16.13312    2.00000
   37    -15.91749    2.00000
   38    -15.76472    2.00000
   39    -15.15619    2.00000
   40    -15.06780    2.00000
   41    -15.01604    2.00000
   42    -14.61854    2.00000
   43    -14.58571    2.00000
   44    -14.38369    2.00000
   45    -14.35166    2.00000
   46    -14.22793    2.00000
   47    -14.19173    2.00000
   48    -13.93247    2.00000
   49    -13.89791    2.00000
   50    -13.83934    2.00000
   51    -13.55814    2.00000
   52    -13.50796    2.00000
   53    -13.39689    2.00000
   54    -13.28754    2.00000
   55    -12.98361    2.00000
   56    -12.91875    2.00000
   57    -12.86378    2.00000
   58    -12.81923    2.00000
   59    -12.27978    2.00000
   60    -12.18907    2.00000
   61    -12.08566    2.00000
   62    -11.94875    2.00000
   63    -11.78285    2.00000
   64    -11.71114    2.00000
   65    -11.55092    2.00000
   66    -11.35178    2.00000
   67    -11.26736    2.00000
   68    -11.23061    2.00000
   69    -11.15921    2.00000
   70    -11.13692    2.00000
   71    -10.97873    2.00000
   72    -10.88399    2.00000
   73    -10.72563    2.00000
   74    -10.69288    2.00000
   75    -10.66043    2.00000
   76    -10.61579    2.00000
   77    -10.55357    2.00000
   78    -10.48641    2.00000
   79    -10.40661    2.00000
   80    -10.35045    2.00000
   81    -10.33160    2.00000
   82    -10.25581    2.00000
   83    -10.22951    2.00000
   84    -10.17550    2.00000
   85    -10.16438    2.00000
   86    -10.05011    2.00000
   87    -10.00252    2.00000
   88     -9.95709    2.00000
   89     -9.89194    2.00000
   90     -9.86799    2.00000
   91     -9.77255    2.00000
   92     -9.75494    2.00000
   93     -9.67219    2.00000
   94     -9.62507    2.00000
   95     -9.56420    2.00000
   96     -9.53253    2.00000
   97     -9.51340    2.00000
   98     -9.41621    2.00000
   99     -9.27095    2.00000
  100     -9.16217    2.00000
  101     -9.14501    2.00000
  102     -9.08178    2.00000
  103     -9.05664    2.00000
  104     -8.89349    2.00000
  105     -8.83831    2.00000
  106     -8.78989    2.00000
  107     -8.65067    2.00000
  108     -8.60014    2.00000
  109     -8.59613    2.00000
  110     -8.49341    2.00000
  111     -8.39095    2.00000
  112     -8.33013    2.00000
  113     -8.18572    2.00000
  114     -8.11787    2.00000
  115     -8.05334    2.00000
  116     -8.02669    2.00000
  117     -7.96894    2.00000
  118     -7.94465    2.00000
  119     -7.92408    2.00000
  120     -7.90049    2.00000
  121     -7.86992    2.00000
  122     -7.77824    2.00000
  123     -7.70896    2.00000
  124     -7.66466    2.00000
  125     -7.66276    2.00000
  126     -7.59767    2.00000
  127     -7.56715    2.00000
  128     -7.52210    2.00000
  129     -7.47334    2.00000
  130     -7.46636    2.00000
  131     -7.40440    2.00000
  132     -7.35312    2.00000
  133     -7.02514    2.00000
  134     -6.96484    2.00000
  135     -6.47522    2.00000
  136     -6.37101    2.00000
  137     -6.06710    2.00000
  138     -5.97782    2.00000
  139     -5.94550    2.00000
  140     -5.90238    2.00000
  141     -5.84793    2.00000
  142     -5.78521    2.00000
  143     -5.74872    2.00000
  144     -5.68410    2.00000
  145     -5.57959    2.00000
  146     -5.53541    2.00000
  147     -5.35033    2.00000
  148     -5.22938    2.00000
  149     -5.16750    2.00000
  150     -5.09040    2.00000
  151     -5.02831    2.00000
  152     -4.69304    2.00000
  153     -1.31385    0.00000
  154     -1.01943    0.00000
  155     -0.74045    0.00000
  156     -0.65564    0.00000
  157     -0.63457    0.00000
  158     -0.49919    0.00000
  159     -0.43669    0.00000
  160     -0.41027    0.00000
  161     -0.14698    0.00000
  162     -0.14044    0.00000
  163     -0.01947    0.00000
  164      0.04076    0.00000
  165      0.10015    0.00000
  166      0.11699    0.00000
  167      0.19524    0.00000
  168      0.21608    0.00000
  169      0.26171    0.00000
  170      0.32517    0.00000
  171      0.34641    0.00000
  172      0.38456    0.00000
  173      0.41116    0.00000
  174      0.44221    0.00000
  175      0.51434    0.00000
  176      0.54989    0.00000
  177      0.62173    0.00000
  178      0.64316    0.00000
  179      0.65168    0.00000
  180      0.66502    0.00000
  181      0.68470    0.00000
  182      0.72435    0.00000
  183      0.74081    0.00000
  184      0.77582    0.00000
  185      0.79496    0.00000
  186      0.82522    0.00000
  187      0.86487    0.00000

Fermi level: -3.00344

Gap: 3.379 eV
Transition (v -> c):
  (s=0, k=0, n=152, [0.00, 0.00, 0.00]) -> (s=0, k=0, n=153, [0.00, 0.00, 0.00])

Forces in eV/Ang:
  0 H    -0.00156    0.00164   -0.02995
  1 H    -0.04477    0.03046    0.07650
  2 H    -0.02128   -0.00220   -0.07802
  3 H     0.08059    0.05429    0.03163
  4 H    -0.00582    0.14983   -0.04457
  5 H    -0.03846   -0.01478    0.10051
  6 H     0.06747   -0.08616    0.08353
  7 H    -0.04877    0.14848   -0.16050
  8 H     0.12382    0.07303   -0.08642
  9 H    -0.14673   -0.03433    0.11351
 10 H     0.09068   -0.21273   -0.05101
 11 H    -0.11881    0.15724    0.10453
 12 H    -0.15194    0.05588   -0.25019
 13 H     0.08420   -0.21150    0.16223
 14 H    -0.08622   -0.05542   -0.17848
 15 H     0.06092   -0.07075    0.18426
 16 H     0.13701   -0.00579    0.12766
 17 H     0.06070    0.17650   -0.06932
 18 H    -0.05427    0.03332    0.22333
 19 H     0.08847   -0.12445   -0.02212
 20 H     0.05434    0.01468    0.02253
 21 H     0.02653   -0.01211    0.00311
 22 H     0.03948    0.02523   -0.10792
 23 H     0.08437    0.03510    0.00669
 24 H     0.00874    0.00297   -0.02912
 25 H     0.01905    0.04245    0.08092
 26 H     0.04106   -0.11148   -0.03809
 27 H    -0.05372   -0.03731    0.03370
 28 H     0.07404    0.00523   -0.20794
 29 H    -0.00906   -0.14930    0.06902
 30 H     0.15288   -0.05247   -0.06624
 31 H    -0.06527   -0.07368    0.02982
 32 H     0.14117    0.09335    0.00078
 33 H     0.12009   -0.00904   -0.02824
 34 H     0.07974   -0.05021    0.00565
 35 H     0.03336    0.01276   -0.01379
 36 H     0.02808    0.03317    0.00749
 37 H    -0.16725   -0.07766   -0.11911
 38 H     0.00706   -0.00413    0.07047
 39 H    -0.01529   -0.07136   -0.03038
 40 H    -0.06571    0.07255   -0.23675
 41 H    -0.00002   -0.01979   -0.19059
 42 H    -0.02395   -0.02435    0.26908
 43 H    -0.01923   -0.19101    0.12978
 44 H    -0.22548   -0.00469    0.09342
 45 H     0.01173    0.15946    0.06792
 46 H     0.26508    0.07304   -0.18207
 47 H     0.10753    0.04276    0.11537
 48 H    -0.20459    0.10511    0.04562
 49 H    -0.27028   -0.10757    0.27459
 50 H    -0.11846   -0.03604    0.02012
 51 H    -0.11935    0.17634   -0.00332
 52 H    -0.03922    0.12308    0.10222
 53 H     0.03374    0.01019    0.04575
 54 O     0.27735    0.13839    0.19275
 55 O    -0.29586    0.26015   -0.17263
 56 O    -0.25988   -0.07764   -0.00255
 57 O    -0.00468   -0.04696    0.07828
 58 N     0.38574   -0.08319   -0.27776
 59 N    -0.19425    0.04153    0.02013
 60 O     0.39066   -0.27219    0.07785
 61 O    -0.30480    0.09428    0.04741
 62 C    -0.06926    0.06232   -0.21261
 63 C     0.18548   -0.30768    0.00341
 64 C    -0.02289   -0.02009    0.06291
 65 C    -0.12595    0.16182    0.15041
 66 C    -0.10327   -0.12266    0.10051
 67 C    -0.10420    0.00818   -0.03339
 68 C     0.22552   -0.00972    0.08454
 69 C     0.04788    0.03523   -0.08841
 70 C     0.21527    0.04619    0.01134
 71 C    -0.22519   -0.01992   -0.03133
 72 C    -0.14877   -0.05406    0.07282
 73 C     0.09061    0.02621   -0.05739
 74 C     0.19347   -0.00895    0.03494
 75 C    -0.11554    0.03940   -0.03347
 76 C    -0.14377   -0.15562    0.08708
 77 C     0.17520   -0.04581   -0.19031
 78 C    -0.09763    0.03830   -0.10231
 79 C     0.15639   -0.05199    0.07481
 80 C    -0.15102   -0.05400    0.14541
 81 C     0.14411    0.14668   -0.01095
 82 C    -0.19348    0.03024    0.08420
 83 C     0.13117   -0.02672    0.00223
 84 C    -0.04150   -0.03858    0.20096
 85 C     0.12547    0.24845   -0.06575
 86 N    -0.28967    0.39055    0.11937
 87 N     0.18004   -0.08508   -0.14859
 88 N     0.08221   -0.01330   -0.07389
 89 N     0.27943   -0.06116   -0.18280
 90 N     0.24666   -0.09234   -0.33056
 91 N    -0.10427   -0.28532   -0.07078
 92 C    -0.04829    0.15624    0.09988
 93 C     0.14938   -0.07061   -0.12882
 94 C    -0.17737    0.00064   -0.09702
 95 C    -0.03195    0.03545    0.15035
 96 C     0.04687    0.17064    0.07676
 97 C    -0.04949    0.00486    0.02977
 98 C     0.13920   -0.27447   -0.02747
 99 C     0.06988   -0.04909   -0.10292
100 C     0.20521   -0.00347    0.00979
101 C    -0.31217   -0.04420   -0.01078
102 C     0.05840    0.10041    0.01286
103 C     0.05750    0.02155    0.07356
104 C     0.04341    0.06206    0.05168
105 C    -0.12060    0.06767    0.05599
106 C    -0.04644   -0.08657    0.14386
107 C    -0.13460    0.16002    0.15178
108 C    -0.01718    0.06208    0.20624
109 C     0.08035    0.14340   -0.03073
110 C    -0.14982   -0.09657   -0.13487
111 C     0.18472   -0.02581    0.01697

System changes: positions 

Initializing position-dependent things.

Density initialized from wave functions
             .------------------------------------------------------------------------------------.  
            /|                                                                                    |  
           / |                                                                                    |  
          /  |                                                                                    |  
         /   |                                                                                    |  
        /    |                                                                                    |  
       /     |                                                                                    |  
      /      |                                                                                    |  
     /       |                                                                                    |  
    /        |             H                                                                      |  
   /         |               C H                                                                  |  
  /          |        H     OH                  H                     H H   H H                   |  
 *           |    H C      C                          H              H C     C                    |  
 |           |             H         H     H    C   C                     C  HH                   |  
 |           |       C   C         C  C CCC   C          H              O  C                      |  
 |           |  H  H H   H     CNN  C   H            C  C C     H       C                         |  
 |           |     C      CC                   C  C     H C   C N  H  N     ONH                   |  
 |           |     H      OH                 H               CHC  C CCH       C                   |  
 |           |         H  C                        H          H        H       O                  |  
 |           .-------------C-H---H----------------------------HC---CC---------H-C--H--------------.  
 |          /            H     H                                  H H H                          /   
 |         /             H     H                              H                 H               /    
 |        /                                                                                    /     
[...]
  66 C     17.076306    8.768261   10.270346    ( 0.0000,  0.0000,  0.0000)
  67 C     16.335162    8.766719    7.984400    ( 0.0000,  0.0000,  0.0000)
  68 C     18.359879    9.107044    9.849688    ( 0.0000,  0.0000,  0.0000)
  69 C     17.617813    9.100249    7.563775    ( 0.0000,  0.0000,  0.0000)
  70 C     14.606166    6.996267   10.685207    ( 0.0000,  0.0000,  0.0000)
  71 C     20.355626   10.201433    6.868273    ( 0.0000,  0.0000,  0.0000)
  72 C     16.039957    8.562291    9.344191    ( 0.0000,  0.0000,  0.0000)
  73 C     18.670152    9.242544    8.484296    ( 0.0000,  0.0000,  0.0000)
  74 C     14.710559    8.050050    9.738879    ( 0.0000,  0.0000,  0.0000)
  75 C     20.059113    9.401496    8.003190    ( 0.0000,  0.0000,  0.0000)
  76 C     13.410185    6.334678   10.939496    ( 0.0000,  0.0000,  0.0000)
  77 C     21.620603   10.239650    6.293528    ( 0.0000,  0.0000,  0.0000)
  78 C     13.559757    8.511981    9.087717    ( 0.0000,  0.0000,  0.0000)
  79 C     21.075546    8.645676    8.605576    ( 0.0000,  0.0000,  0.0000)
  80 C     10.336022    6.944274    9.315013    ( 0.0000,  0.0000,  0.0000)
  81 C     24.418850    8.333659    7.296659    ( 0.0000,  0.0000,  0.0000)
  82 C     12.270889    6.734567   10.226079    ( 0.0000,  0.0000,  0.0000)
  83 C     22.627536    9.442623    6.857148    ( 0.0000,  0.0000,  0.0000)
  84 C     12.365988    7.845673    9.350347    ( 0.0000,  0.0000,  0.0000)
  85 C     22.335230    8.674001    8.010860    ( 0.0000,  0.0000,  0.0000)
  86 N      7.110205   10.670062    8.648789    ( 0.0000,  0.0000,  0.0000)
  87 N     28.632342    9.046654    8.135854    ( 0.0000,  0.0000,  0.0000)
  88 N      8.611789    7.478462    7.632854    ( 0.0000,  0.0000,  0.0000)
  89 N     26.277387    7.162214    8.443002    ( 0.0000,  0.0000,  0.0000)
  90 N     11.096519    7.976409    8.822087    ( 0.0000,  0.0000,  0.0000)
  91 N     23.501354    7.973518    8.262748    ( 0.0000,  0.0000,  0.0000)
  92 C      7.757180   13.988250    9.678754    ( 0.0000,  0.0000,  0.0000)
  93 C     29.726287    9.579611    4.804400    ( 0.0000,  0.0000,  0.0000)
  94 C      4.968099    8.588938    8.235521    ( 0.0000,  0.0000,  0.0000)
  95 C      5.586734    8.991791   10.654854    ( 0.0000,  0.0000,  0.0000)
  96 C     27.641759   11.677692    9.387918    ( 0.0000,  0.0000,  0.0000)
  97 C     25.783400   10.348036   10.411321    ( 0.0000,  0.0000,  0.0000)
  98 C      6.070689    8.499525    9.292495    ( 0.0000,  0.0000,  0.0000)
  99 C     26.776133   10.423692    9.247781    ( 0.0000,  0.0000,  0.0000)
 100 C     10.736116    4.981232    6.642611    ( 0.0000,  0.0000,  0.0000)
 101 C     24.072674    4.715719    7.092562    ( 0.0000,  0.0000,  0.0000)
 102 C      8.874366    6.733192    6.386951    ( 0.0000,  0.0000,  0.0000)
 103 C     25.840081    5.774796    8.630123    ( 0.0000,  0.0000,  0.0000)
 104 C      8.780065    5.238516    8.301006    ( 0.0000,  0.0000,  0.0000)
 105 C     25.805926    6.448527    6.273589    ( 0.0000,  0.0000,  0.0000)
 106 C      7.369459    9.264803    8.873488    ( 0.0000,  0.0000,  0.0000)
 107 C     27.661945    9.153852    9.232775    ( 0.0000,  0.0000,  0.0000)
 108 C      8.933993    6.677490    8.821306    ( 0.0000,  0.0000,  0.0000)
 109 C     25.785717    7.703562    7.173820    ( 0.0000,  0.0000,  0.0000)
 110 C      9.251496    5.302282    6.832083    ( 0.0000,  0.0000,  0.0000)
 111 C     25.500624    5.252182    7.211277    ( 0.0000,  0.0000,  0.0000)

Unit cell:
           periodic     x           y           z      points  spacing
  1. axis:    no    34.487200    0.000000    0.000000   160     0.2155
  2. axis:    no     0.000000   18.849900    0.000000    90     0.2094
  3. axis:    no     0.000000    0.000000   15.558900    72     0.2161

  Lengths:  34.487200  18.849900  15.558900
  Angles:   90.000000  90.000000  90.000000

Effective grid spacing dv^(1/3) = 0.2137

                     log10-error:    total        iterations:
           time      wfs    density  energy       poisson
iter:   1  02:32:19  -4.07         -675.223058           
iter:   2  02:34:38  -5.44  -3.21  -675.222918           
iter:   3  02:36:55  -5.01  -3.23  -675.222146           
iter:   4  02:39:13  -6.66  -3.58  -675.222116           
iter:   5  02:41:29  -6.15  -3.59  -675.222062           
iter:   6  02:43:48  -6.16  -3.78  -675.222040           
iter:   7  02:46:05  -6.91  -3.97  -675.222028           
iter:   8  02:48:24  -7.32  -4.21  -675.222027           
iter:   9  02:50:42  -7.59  -4.44  -675.222027           

Converged after 9 iterations.

Dipole moment: (0.111589, -0.998819, -0.670433) |e|*Ang

Energy contributions relative to reference atoms: (reference = -69988.991683)

Kinetic:       +503.962689
Potential:     -537.904116
External:        +0.000000
XC:            -640.338005
Entropy (-ST):   +0.000000
Local:           -0.942595
--------------------------
Free energy:   -675.222027
Extrapolated:  -675.222027

 Band  Eigenvalues  Occupancy
    0    -27.34162    2.00000
    1    -27.17143    2.00000
    2    -25.91837    2.00000
    3    -25.68896    2.00000
    4    -25.37843    2.00000
    5    -25.25367    2.00000
    6    -24.95930    2.00000
    7    -24.76094    2.00000
    8    -23.78094    2.00000
    9    -23.59686    2.00000
   10    -23.13430    2.00000
   11    -22.96467    2.00000
   12    -21.78470    2.00000
   13    -21.69295    2.00000
   14    -21.11566    2.00000
   15    -20.72867    2.00000
   16    -20.30913    2.00000
   17    -20.02554    2.00000
   18    -19.85689    2.00000
   19    -19.60303    2.00000
   20    -19.54677    2.00000
   21    -19.15689    2.00000
   22    -18.90691    2.00000
   23    -18.52699    2.00000
   24    -18.00829    2.00000
   25    -17.93824    2.00000
   26    -17.88581    2.00000
   27    -17.84936    2.00000
   28    -17.74695    2.00000
   29    -17.66210    2.00000
   30    -17.10185    2.00000
   31    -17.05831    2.00000
   32    -16.90149    2.00000
   33    -16.44215    2.00000
   34    -16.42234    2.00000
   35    -16.35282    2.00000
   36    -16.17511    2.00000
   37    -15.92719    2.00000
   38    -15.75365    2.00000
   39    -15.16799    2.00000
   40    -15.05341    2.00000
   41    -15.02662    2.00000
   42    -14.61519    2.00000
   43    -14.54536    2.00000
   44    -14.39279    2.00000
   45    -14.36194    2.00000
   46    -14.21706    2.00000
   47    -14.18163    2.00000
   48    -13.92186    2.00000
   49    -13.87705    2.00000
   50    -13.82479    2.00000
   51    -13.55603    2.00000
   52    -13.48582    2.00000
   53    -13.41665    2.00000
   54    -13.31765    2.00000
   55    -12.99309    2.00000
   56    -12.93350    2.00000
   57    -12.90262    2.00000
   58    -12.79768    2.00000
   59    -12.26030    2.00000
   60    -12.22027    2.00000
   61    -12.08324    2.00000
   62    -11.91890    2.00000
   63    -11.77075    2.00000
   64    -11.71578    2.00000
   65    -11.54122    2.00000
   66    -11.39793    2.00000
   67    -11.23951    2.00000
   68    -11.19969    2.00000
   69    -11.17115    2.00000
   70    -11.12917    2.00000
   71    -10.97250    2.00000
   72    -10.87372    2.00000
   73    -10.74386    2.00000
   74    -10.70749    2.00000
   75    -10.66468    2.00000
   76    -10.64669    2.00000
   77    -10.56777    2.00000
   78    -10.49121    2.00000
   79    -10.38374    2.00000
   80    -10.33884    2.00000
   81    -10.27853    2.00000
   82    -10.27507    2.00000
   83    -10.17631    2.00000
   84    -10.13215    2.00000
   85    -10.08519    2.00000
   86    -10.04055    2.00000
   87    -10.00085    2.00000
   88     -9.93667    2.00000
   89     -9.88056    2.00000
   90     -9.85609    2.00000
   91     -9.79072    2.00000
   92     -9.75483    2.00000
   93     -9.64725    2.00000
   94     -9.60314    2.00000
   95     -9.53460    2.00000
   96     -9.52554    2.00000
   97     -9.47275    2.00000
   98     -9.40002    2.00000
   99     -9.27607    2.00000
  100     -9.11625    2.00000
  101     -9.09078    2.00000
  102     -9.04933    2.00000
  103     -9.03576    2.00000
  104     -8.84086    2.00000
  105     -8.77971    2.00000
  106     -8.77052    2.00000
  107     -8.66356    2.00000
  108     -8.61456    2.00000
  109     -8.56582    2.00000
  110     -8.54082    2.00000
  111     -8.42493    2.00000
  112     -8.37408    2.00000
  113     -8.22215    2.00000
  114     -8.17055    2.00000
  115     -8.07631    2.00000
  116     -8.04477    2.00000
  117     -8.00440    2.00000
  118     -7.99241    2.00000
  119     -7.95740    2.00000
  120     -7.92389    2.00000
  121     -7.88695    2.00000
  122     -7.77422    2.00000
  123     -7.71753    2.00000
  124     -7.66954    2.00000
  125     -7.65762    2.00000
  126     -7.61356    2.00000
  127     -7.58621    2.00000
  128     -7.54623    2.00000
  129     -7.51329    2.00000
  130     -7.42947    2.00000
  131     -7.38402    2.00000
  132     -7.34064    2.00000
  133     -7.06261    2.00000
  134     -6.97466    2.00000
  135     -6.51985    2.00000
  136     -6.40884    2.00000
  137     -6.08008    2.00000
  138     -6.07841    2.00000
  139     -6.03633    2.00000
  140     -5.92203    2.00000
  141     -5.89399    2.00000
  142     -5.82552    2.00000
  143     -5.77548    2.00000
  144     -5.73684    2.00000
  145     -5.67379    2.00000
  146     -5.59629    2.00000
  147     -5.38512    2.00000
  148     -5.25029    2.00000
  149     -5.17644    2.00000
  150     -5.08924    2.00000
  151     -5.06102    2.00000
  152     -4.53654    2.00000
  153     -1.46614    0.00000
  154     -1.02008    0.00000
  155     -0.71238    0.00000
  156     -0.65678    0.00000
  157     -0.63942    0.00000
  158     -0.54461    0.00000
  159     -0.43143    0.00000
  160     -0.39934    0.00000
  161     -0.16961    0.00000
  162     -0.14457    0.00000
  163     -0.04367    0.00000
  164      0.06033    0.00000
  165      0.11217    0.00000
  166      0.12977    0.00000
  167      0.19742    0.00000
  168      0.22085    0.00000
  169      0.25967    0.00000
  170      0.33129    0.00000
  171      0.36877    0.00000
  172      0.37297    0.00000
  173      0.44991    0.00000
  174      0.47157    0.00000
  175      0.51101    0.00000
  176      0.53139    0.00000
  177      0.56334    0.00000
  178      0.64150    0.00000
  179      0.64764    0.00000
  180      0.65514    0.00000
  181      0.67917    0.00000
  182      0.72765    0.00000
  183      0.75709    0.00000
  184      0.75985    0.00000
  185      0.80196    0.00000
  186      0.84001    0.00000
  187      0.85046    0.00000

Fermi level: -3.00134

Gap: 3.070 eV
Transition (v -> c):
  (s=0, k=0, n=152, [0.00, 0.00, 0.00]) -> (s=0, k=0, n=153, [0.00, 0.00, 0.00])

Forces in eV/Ang:
  0 H     0.01081    0.00555    0.00274
  1 H     0.00524    0.01036    0.01689
  2 H     0.00004   -0.00970   -0.00507
  3 H     0.00144    0.01409    0.02021
  4 H    -0.00359   -0.01607   -0.01222
  5 H     0.01433   -0.00856    0.01417
  6 H    -0.01237   -0.00472   -0.01189
  7 H    -0.00326   -0.00628    0.01081
  8 H     0.01697   -0.02643   -0.01005
  9 H     0.00885   -0.00071   -0.02772
 10 H     0.00335   -0.00973   -0.01621
 11 H     0.01811    0.01241    0.01173
 12 H     0.00333   -0.00702   -0.00343
 13 H    -0.00437   -0.01822   -0.01852
 14 H    -0.00054    0.01051   -0.00064
 15 H    -0.00702   -0.01515   -0.02187
 16 H    -0.00430    0.00127    0.00556
 17 H    -0.00158    0.02966   -0.01574
 18 H    -0.02610   -0.00911    0.02306
 19 H     0.01244    0.00123    0.01842
 20 H    -0.01019    0.00837    0.01242
 21 H     0.00779    0.01241    0.00448
 22 H     0.00320    0.01261   -0.01472
 23 H    -0.00498    0.00529   -0.01455
 24 H    -0.01540   -0.01175    0.01242
 25 H     0.01635    0.00521    0.00714
 26 H    -0.01905   -0.00167   -0.00570
 27 H     0.02391    0.00689    0.00982
 28 H     0.00965   -0.00343   -0.01347
 29 H    -0.00419    0.00251   -0.01661
 30 H    -0.00118    0.00153   -0.01856
 31 H     0.00454   -0.00202    0.00930
 32 H     0.00773    0.00789   -0.00408
 33 H    -0.00697   -0.01960   -0.01282
 34 H    -0.00424   -0.00696   -0.00434
 35 H    -0.00316    0.00224   -0.00440
 36 H     0.00382    0.00822    0.00722
 37 H     0.01274   -0.02768    0.00256
 38 H     0.00292    0.00761   -0.01547
 39 H     0.01068   -0.00066    0.00542
 40 H     0.02047    0.00827   -0.00547
 41 H    -0.01120   -0.00629    0.00991
 42 H     0.02743    0.00402   -0.00550
 43 H     0.00803    0.00480    0.00283
 44 H    -0.00222    0.00872    0.00567
 45 H     0.00871   -0.01175    0.00829
 46 H    -0.01281    0.01991   -0.01783
 47 H     0.00762    0.01991    0.01303
 48 H    -0.01751    0.00956    0.02082
 49 H     0.02419    0.00084    0.01209
 50 H     0.00065    0.00158   -0.01629
 51 H    -0.00664    0.01480    0.00141
 52 H    -0.00930   -0.01248   -0.01334
 53 H    -0.00049   -0.00036   -0.00469
 54 O    -0.00712    0.01085   -0.00952
 55 O     0.00351    0.00114    0.01680
 56 O    -0.01552   -0.00451    0.02101
 57 O    -0.00334    0.01115   -0.01387
 58 N    -0.00800    0.01812    0.00725
 59 N    -0.00739    0.00538    0.00663
 60 O     0.01454    0.00076   -0.02926
 61 O     0.01860   -0.01769   -0.00444
 62 C    -0.01552    0.00274   -0.00268
 63 C     0.01535    0.01098   -0.01100
 64 C    -0.00087   -0.01385   -0.00536
 65 C     0.00055   -0.00644   -0.01557
 66 C    -0.00126    0.01916    0.00618
 67 C    -0.00512    0.00739    0.00438
 68 C     0.01119   -0.01605    0.00267
 69 C    -0.00131   -0.01522    0.00300
 70 C     0.01131    0.02219   -0.00472
 71 C    -0.00455   -0.01215    0.01312
 72 C     0.01812   -0.00982   -0.00203
 73 C    -0.01488    0.02049    0.00115
 74 C     0.00629    0.01275   -0.01421
 75 C    -0.00516   -0.00988    0.00516
 76 C     0.01371    0.00325   -0.01954
 77 C    -0.00886   -0.00055    0.01506
 78 C    -0.00315    0.00968    0.02035
 79 C     0.00530    0.00397   -0.00556
 80 C     0.00851   -0.00624   -0.02077
 81 C     0.00199    0.00642    0.00471
 82 C     0.00208    0.01138    0.01162
 83 C    -0.01597   -0.01294   -0.00148
 84 C     0.00422   -0.01374   -0.01601
 85 C     0.00537    0.00144    0.01083
 86 N    -0.00871   -0.00740   -0.01977
 87 N    -0.01360   -0.00495   -0.00790
 88 N     0.01152    0.00058    0.00460
 89 N    -0.00119   -0.00435   -0.00936
 90 N    -0.00222    0.01263    0.00080
 91 N    -0.00174    0.00005   -0.02653
 92 C    -0.00841    0.01421    0.00048
 93 C     0.00243    0.01196    0.00402
 94 C     0.00412   -0.00173    0.00208
 95 C    -0.00942    0.00244    0.01994
 96 C     0.00872    0.00437    0.00094
 97 C    -0.01251    0.00111    0.01715
 98 C    -0.00095    0.00411    0.00639
 99 C    -0.02048    0.00038    0.00897
100 C    -0.00115    0.00292   -0.00090
101 C     0.01800    0.01017   -0.00089
102 C    -0.00427    0.00965    0.02308
103 C    -0.00009   -0.00403   -0.00186
104 C     0.00329   -0.00606    0.00882
105 C    -0.00494    0.00404    0.01371
106 C     0.02559   -0.01083   -0.01882
107 C    -0.00163   -0.01597    0.01417
108 C     0.01314    0.00444   -0.00554
109 C     0.00015    0.00397    0.00985
110 C    -0.01527   -0.00545   -0.00029
111 C    -0.00186    0.00906   -0.00667

Timing:                                      incl.     excl.
-------------------------------------------------------------------
Density initialized from wave functions:   797.961   797.957   0.8% |
 Symmetrize density:                         0.004     0.004   0.0% |
Forces:                                   5200.698  5200.698   5.3% |-|
Hamiltonian:                               524.116    14.537   0.0% |
 Atomic:                                     7.751     0.122   0.0% |
  XC Correction:                             7.629     7.629   0.0% |
 Calculate atomic Hamiltonians:            404.674   404.674   0.4% |
 Communicate:                                9.829     9.829   0.0% |
 Initialize Hamiltonian:                     0.004     0.004   0.0% |
 Poisson:                                    0.708     0.708   0.0% |
 XC 3D grid:                                86.613    86.613   0.1% |
LCAO initialization:                        18.617     0.536   0.0% |
 LCAO eigensolver:                           0.363     0.000   0.0% |
  Calculate projections:                     0.000     0.000   0.0% |
  DenseAtomicCorrection:                     0.000     0.000   0.0% |
  Distribute overlap matrix:                 0.306     0.306   0.0% |
  Orbital Layouts:                           0.047     0.047   0.0% |
  Potential matrix:                          0.010     0.010   0.0% |
 LCAO to grid:                              17.043    17.043   0.0% |
 Set positions (LCAO WFS):                   0.675     0.474   0.0% |
  Basic WFS set positions:                   0.007     0.007   0.0% |
  Basis functions set positions:             0.001     0.001   0.0% |
  P tci:                                     0.001     0.001   0.0% |
  ST tci:                                    0.027     0.027   0.0% |
  mktci:                                     0.165     0.165   0.0% |
PWDescriptor:                                0.588     0.588   0.0% |
Redistribute:                                0.148     0.148   0.0% |
SCF-cycle:                               90553.769     3.333   0.0% |
 Davidson:                               76870.420 37603.377  38.2% |--------------|
  Apply H:                                4381.362  4357.786   4.4% |-|
   HMM T:                                   23.576    23.576   0.0% |
  Subspace diag:                          9119.544     0.375   0.0% |
   calc_h_matrix:                         5910.259  1453.294   1.5% ||
    Apply H:                              4456.965  4433.723   4.5% |-|
     HMM T:                                 23.242    23.242   0.0% |
   diagonalize:                             31.522    31.522   0.0% |
   rotate_psi:                            3177.389  3177.389   3.2% ||
  calc. matrices:                        19330.743 10524.661  10.7% |---|
   Apply H:                               8806.081  8759.089   8.9% |---|
    HMM T:                                  46.992    46.992   0.0% |
  diagonalize:                             126.812   126.812   0.1% |
  rotate_psi:                             6308.583  6308.583   6.4% |--|
 Density:                                 7640.450     0.071   0.0% |
  Atomic density matrices:                   8.869     8.869   0.0% |
  Mix:                                    4850.947  4850.947   4.9% |-|
  Multipole moments:                         1.003     1.003   0.0% |
  Pseudo density:                         2779.560  2779.525   2.8% ||
   Symmetrize density:                       0.035     0.035   0.0% |
 Hamiltonian:                             5048.377   145.985   0.1% |
  Atomic:                                   75.703     1.355   0.0% |
   XC Correction:                           74.348    74.348   0.1% |
  Calculate atomic Hamiltonians:          3875.783  3875.783   3.9% |-|
  Communicate:                              95.886    95.886   0.1% |
  Poisson:                                   6.550     6.550   0.0% |
  XC 3D grid:                              848.470   848.470   0.9% |
 Orthonormalize:                           991.188     0.050   0.0% |
  calc_s_matrix:                            58.814    58.814   0.1% |
  inverse-cholesky:                          1.788     1.788   0.0% |
  projections:                             873.343   873.343   0.9% |
  rotate_psi_s:                             57.193    57.193   0.1% |
Set symmetry:                                0.003     0.003   0.0% |
Other:                                    1377.709  1377.709   1.4% ||
-------------------------------------------------------------------
Total:                                             98473.608 100.0%

Memory usage: 1.37 GiB
Date: Wed Jul  7 03:00:14 2021
