
  ___ ___ ___ _ _ _  
 |   |   |_  | | | | 
 | | | | | . | | | | 
 |__ |  _|___|_____|  21.6.0
 |___|_|             

User:   hanguo02@comput119.ghddi.org
Date:   Wed Jul  7 05:23:33 2021
Arch:   x86_64
Pid:    5692
Python: 3.6.8
gpaw:   /home/hanguo02/.local/lib/python3.6/site-packages/gpaw
_gpaw:  /home/hanguo02/.local/lib/python3.6/site-packages/
        _gpaw.cpython-36m-x86_64-linux-gnu.so
ase:    /home/hanguo02/.local/lib/python3.6/site-packages/ase (version 3.22.0)
numpy:  /usr/lib64/python3.6/site-packages/numpy (version 1.16.2)
scipy:  /usr/lib64/python3.6/site-packages/scipy (version 1.2.1)
libxc:  4.2.0
units:  Angstrom and eV
cores: 32
OpenMP: False
OMP_NUM_THREADS: 1

Input parameters:
  mode: {ecut: 400.0,
         gammacentered: False,
         name: pw}
  xc: PBE

System changes: positions, numbers, cell, pbc, initial_charges, initial_magmoms 

Initialize ...

H-setup:
  name: Hydrogen
  id: d65de229564ff8ea4db303e23b6d1ecf
  Z: 1.0
  valence: 1
  core: 0
  charge: 0.0
  file: /home/hanguo02/Software/GPAW/gpaw-setups-0.9.20000/H.PBE.gz
  compensation charges: gauss, rc=0.15, lmax=2
  cutoffs: 0.85(filt), 0.53(core),
  valence states:
                energy  radius
    1s(1.00)    -6.494   0.476
    *s          20.717   0.476
    *p           0.000   0.476

  Using partial waves for H as LCAO basis

O-setup:
  name: Oxygen
  id: 32ecd46bf208036f09c70b0ec9a88b78
  Z: 8.0
  valence: 6
  core: 2
  charge: 0.0
  file: /home/hanguo02/Software/GPAW/gpaw-setups-0.9.20000/O.PBE.gz
  compensation charges: gauss, rc=0.21, lmax=2
  cutoffs: 1.17(filt), 0.83(core),
  valence states:
                energy  radius
    2s(2.00)   -23.961   0.688
    2p(4.00)    -9.029   0.598
    *s           3.251   0.688
    *p          18.182   0.598
    *d           0.000   0.619

  Using partial waves for O as LCAO basis

F-setup:
  name: Fluorine
  id: 9cd46ba2a61e170ad72278be75b55cc0
  Z: 9.0
  valence: 7
  core: 2
  charge: 0.0
  file: /home/hanguo02/Software/GPAW/gpaw-setups-0.9.20000/F.PBE.gz
  compensation charges: gauss, rc=0.20, lmax=2
  cutoffs: 1.14(filt), 0.74(core),
  valence states:
                energy  radius
    2s(2.00)   -29.898   0.635
    2p(5.00)   -11.110   0.635
    *s          -2.687   0.635
    *p          16.102   0.635
    *d           0.000   0.635

  Using partial waves for F as LCAO basis

N-setup:
  name: Nitrogen
  id: f7500608b86eaa90eef8b1d9a670dc53
  Z: 7.0
  valence: 5
  core: 2
  charge: 0.0
  file: /home/hanguo02/Software/GPAW/gpaw-setups-0.9.20000/N.PBE.gz
  compensation charges: gauss, rc=0.18, lmax=2
  cutoffs: 1.11(filt), 0.96(core),
  valence states:
                energy  radius
    2s(2.00)   -18.583   0.603
    2p(3.00)    -7.089   0.529
    *s           8.629   0.603
    *p          20.123   0.529
    *d           0.000   0.577

  Using partial waves for N as LCAO basis

C-setup:
  name: Carbon
  id: 4aa54d4b901d75f77cc0ea3eec22967b
  Z: 6.0
  valence: 4
  core: 2
  charge: 0.0
  file: /home/hanguo02/Software/GPAW/gpaw-setups-0.9.20000/C.PBE.gz
  compensation charges: gauss, rc=0.20, lmax=2
  cutoffs: 1.14(filt), 1.14(core),
  valence states:
                energy  radius
    2s(2.00)   -13.751   0.635
    2p(2.00)    -5.284   0.635
    *s          13.461   0.635
    *p          21.927   0.635
    *d           0.000   0.635

  Using partial waves for C as LCAO basis

Reference energy: -56743.579694

Spin-paired calculation

Convergence criteria:
  Maximum total energy change: 0.0005 eV / electron
  Maximum integral of absolute density change: 0.0001 electrons
  Maximum integral of absolute eigenstate change: 4e-08 eV^2
  Maximum number of iterations: 333

Symmetries present (total): 1

  ( 1  0  0)
  ( 0  1  0)
  ( 0  0  1)

1 k-point (Gamma)
1 k-point in the irreducible part of the Brillouin zone
       k-points in crystal coordinates                weights
   0:     0.00000000    0.00000000    0.00000000          1/1

Wave functions: Plane wave expansion
  Cutoff energy: 400.000 eV
  Number of coefficients: 154535 (reduced to 77268)
  Pulay-stress correction: 0.000000 eV/Ang^3 (de/decut=0.000000)
  Using Numpy's FFT
  ScaLapack parameters: grid=1x1, blocksize=None
  Wavefunction extrapolation:
    Improved wavefunction reuse through dual PAW basis 

Occupation numbers: width=0.000 eV 

Eigensolver
   Davidson(niter=2) 

Densities:
  Coarse grid: 144*75*80 grid
  Fine grid: 288*150*160 grid
  Total Charge: 0.000000 

Density mixing:
  Method: separate
  Backend: pulay
  Linear mixing parameter: 0.05
  Mixing with 5 old densities
  Damping of long wave oscillations: 50 

Hamiltonian:
  XC and Coulomb potentials evaluated on a 288*150*160 grid
  Using the PBE Exchange-Correlation functional
 

XC parameters: PBE with 2 nearest neighbor stencil

Memory estimate:
  Process memory now: 1406.19 MiB
  Calculator: 393.42 MiB
    Density: 17.76 MiB
      Arrays: 5.36 MiB
      Localized functions: 10.31 MiB
      Mixer: 2.09 MiB
    Hamiltonian: 3.82 MiB
      Arrays: 3.50 MiB
      XC: 0.00 MiB
      Poisson: 0.00 MiB
      vbar: 0.31 MiB
    Wavefunctions: 371.84 MiB
      Arrays psit_nG: 173.32 MiB
      Eigensolver: 180.86 MiB
      Projections: 0.03 MiB
      Projectors: 0.59 MiB
      PW-descriptor: 17.05 MiB

Total number of cores used: 32
Domain decomposition: 4 x 2 x 4

Number of atoms: 82
Number of atomic orbitals: 220
Number of bands in calculation: 147
Number of valence electrons: 238
Bands to converge: occupied

... initialized

Initializing position-dependent things.

Density initialized from atomic densities
Creating initial wave functions:
  147 bands from LCAO basis set

           .----------------------------------------------------------------------------.  
          /|                                                                            |  
         / |                                                                            |  
        /  |                                                                            |  
       /   |                                                                            |  
      /    |                                                                            |  
     /     |                                                                            |  
    /      |                                                                            |  
   /       |                                                                            |  
  /        |                                                                            |  
 *         |                                                                            |  
 |         |                                 H H H                                      |  
 |         |       H          H   H            C  H                                     |  
 |         |      F  C          C H       H                                             |  
 |         |         C  N      N      H   HN CC   H   H                                 |  
 |         |           C  C C    C  C         H  C N  C C  CH      H     O              |  
 |         |           H C           C   C              N  C C  C  C  C    H            |  
 |         |               HC  C          O       O      H   O  H      O                |  
 |         |         HHCCH      C  C                       C H                          |  
 |         |                  H     H                                                   |  
 |         |            HC                             H C                              |  
 |         .-------H--C-H--H----------------------------H--H----------------------------.  
 |        /                                                                            /   
 |       /            H                                                               /    
 |      /                                                                            /     
 |     /                                                                            /      
 |    /                                                                            /       
 |   /                                                                            /        
 |  /                                                                            /         
 | /                                                                            /          
 |/                                                                            /           
 *----------------------------------------------------------------------------*            

Positions:
   0 H     27.196000   10.642700    7.065100    ( 0.0000,  0.0000,  0.0000)
   1 H     24.133700    9.854800    8.361500    ( 0.0000,  0.0000,  0.0000)
   2 H     22.996700   10.643000    5.581200    ( 0.0000,  0.0000,  0.0000)
   3 H      4.900900   10.268800   10.085600    ( 0.0000,  0.0000,  0.0000)
   4 H      7.851100   10.805100    6.219500    ( 0.0000,  0.0000,  0.0000)
   5 H     18.746900   11.240700    8.216100    ( 0.0000,  0.0000,  0.0000)
   6 H      5.720000   12.097900    6.284900    ( 0.0000,  0.0000,  0.0000)
   7 H     20.919800   11.933300    7.283400    ( 0.0000,  0.0000,  0.0000)
   8 H     12.868400    5.388900    7.057200    ( 0.0000,  0.0000,  0.0000)
   9 H     10.489800    5.551800    6.508800    ( 0.0000,  0.0000,  0.0000)
  10 H     12.668500    9.103600    9.255700    ( 0.0000,  0.0000,  0.0000)
  11 H     17.432600    9.517600    9.135300    ( 0.0000,  0.0000,  0.0000)
  12 H     14.476400    8.488200    9.895800    ( 0.0000,  0.0000,  0.0000)
  13 H      9.172700   10.842200    9.967700    ( 0.0000,  0.0000,  0.0000)
  14 H     10.565900   11.278400    8.905900    ( 0.0000,  0.0000,  0.0000)
  15 H     10.778600   10.204300   10.333400    ( 0.0000,  0.0000,  0.0000)
  16 H     20.388200    6.431800    5.602500    ( 0.0000,  0.0000,  0.0000)
  17 H     20.962200    4.772800    5.911400    ( 0.0000,  0.0000,  0.0000)
  18 H     22.001800    5.959600    5.083800    ( 0.0000,  0.0000,  0.0000)
  19 H     21.142500    6.060700    8.042100    ( 0.0000,  0.0000,  0.0000)
  20 H     22.721000    5.635000    7.429000    ( 0.0000,  0.0000,  0.0000)
  21 H      8.113500    4.149100    5.801100    ( 0.0000,  0.0000,  0.0000)
  22 H      6.414200    4.000000    6.268900    ( 0.0000,  0.0000,  0.0000)
  23 H      7.020400    5.316100    4.000000    ( 0.0000,  0.0000,  0.0000)
  24 H      5.822500    6.016500    5.095300    ( 0.0000,  0.0000,  0.0000)
  25 H     18.201700    6.548600   11.773400    ( 0.0000,  0.0000,  0.0000)
  26 H     16.866800    6.424200   12.934000    ( 0.0000,  0.0000,  0.0000)
  27 H      6.702500    5.524200    8.050900    ( 0.0000,  0.0000,  0.0000)
  28 H      8.415000    5.164200    7.845000    ( 0.0000,  0.0000,  0.0000)
  29 H      8.806800    6.700900    4.966200    ( 0.0000,  0.0000,  0.0000)
  30 H      7.447900    7.819200    4.811100    ( 0.0000,  0.0000,  0.0000)
  31 H     15.724000    8.398700   11.915800    ( 0.0000,  0.0000,  0.0000)
  32 H     17.362000    8.862300   11.450600    ( 0.0000,  0.0000,  0.0000)
  33 H     15.270000    5.763300   11.141100    ( 0.0000,  0.0000,  0.0000)
  34 H     16.737200    5.161600   10.338600    ( 0.0000,  0.0000,  0.0000)
  35 H      6.750900    7.517800    7.057300    ( 0.0000,  0.0000,  0.0000)
  36 O     25.599200   10.809800    5.542100    ( 0.0000,  0.0000,  0.0000)
  37 O     14.982300    6.061200    7.920800    ( 0.0000,  0.0000,  0.0000)
  38 O     18.093100    6.470700    8.421800    ( 0.0000,  0.0000,  0.0000)
  39 F      4.000000   11.948500    8.269000    ( 0.0000,  0.0000,  0.0000)
  40 N      6.695300    9.710200    9.208200    ( 0.0000,  0.0000,  0.0000)
  41 N     20.134200    8.190300    7.874800    ( 0.0000,  0.0000,  0.0000)
  42 O     26.393400   10.477000    7.599800    ( 0.0000,  0.0000,  0.0000)
  43 O     22.295900    7.605000    7.157600    ( 0.0000,  0.0000,  0.0000)
  44 C     25.394600   10.531700    6.704600    ( 0.0000,  0.0000,  0.0000)
  45 C     14.395300    6.976900    8.492300    ( 0.0000,  0.0000,  0.0000)
  46 C     17.576100    7.459500    8.947900    ( 0.0000,  0.0000,  0.0000)
  47 C     24.109800   10.204000    7.334500    ( 0.0000,  0.0000,  0.0000)
  48 C     22.982200   10.313400    6.620000    ( 0.0000,  0.0000,  0.0000)
  49 C      5.544000   10.423800    9.221700    ( 0.0000,  0.0000,  0.0000)
  50 C     21.339800    8.572000    7.400200    ( 0.0000,  0.0000,  0.0000)
  51 C      7.491400    9.881100    8.129600    ( 0.0000,  0.0000,  0.0000)
  52 C     19.224300    9.127500    8.155800    ( 0.0000,  0.0000,  0.0000)
  53 C      7.185500   10.723600    7.068000    ( 0.0000,  0.0000,  0.0000)
  54 C     19.481200   10.482400    7.971100    ( 0.0000,  0.0000,  0.0000)
  55 C      5.995400   11.452500    7.116000    ( 0.0000,  0.0000,  0.0000)
  56 C     20.720300   10.873700    7.450700    ( 0.0000,  0.0000,  0.0000)
  57 C     12.306700    6.247200    7.428800    ( 0.0000,  0.0000,  0.0000)
  58 C      5.163200   11.292900    8.211000    ( 0.0000,  0.0000,  0.0000)
  59 C     12.946200    7.218500    8.200900    ( 0.0000,  0.0000,  0.0000)
  60 C     21.683500    9.906500    7.161600    ( 0.0000,  0.0000,  0.0000)
  61 C     10.946800    6.335000    7.112700    ( 0.0000,  0.0000,  0.0000)
  62 C      8.808900    7.785800    7.482900    ( 0.0000,  0.0000,  0.0000)
  63 C     12.210200    8.321200    8.661600    ( 0.0000,  0.0000,  0.0000)
  64 C      8.671800    9.030100    8.087400    ( 0.0000,  0.0000,  0.0000)
  65 C     10.190000    7.421600    7.586400    ( 0.0000,  0.0000,  0.0000)
  66 C     10.833300    8.405800    8.341000    ( 0.0000,  0.0000,  0.0000)
  67 N     17.997400    8.770400    8.740500    ( 0.0000,  0.0000,  0.0000)
  68 N     15.018700    7.772800    9.445400    ( 0.0000,  0.0000,  0.0000)
  69 N      9.873800    9.344700    8.675700    ( 0.0000,  0.0000,  0.0000)
  70 C     10.108700   10.496700    9.521000    ( 0.0000,  0.0000,  0.0000)
  71 C     21.258000    5.826500    5.883200    ( 0.0000,  0.0000,  0.0000)
  72 C     21.837700    6.252200    7.217200    ( 0.0000,  0.0000,  0.0000)
  73 C      7.219600    4.717700    6.087500    ( 0.0000,  0.0000,  0.0000)
  74 C      6.870200    5.720600    4.999400    ( 0.0000,  0.0000,  0.0000)
  75 C     17.127000    6.693900   11.906300    ( 0.0000,  0.0000,  0.0000)
  76 C      7.534100    5.560300    7.326900    ( 0.0000,  0.0000,  0.0000)
  77 C      7.787000    6.905100    5.305500    ( 0.0000,  0.0000,  0.0000)
  78 C     16.627900    8.056000   11.404900    ( 0.0000,  0.0000,  0.0000)
  79 C     16.278600    6.035000   10.811300    ( 0.0000,  0.0000,  0.0000)
  80 C      7.699700    7.011700    6.829300    ( 0.0000,  0.0000,  0.0000)
  81 C     16.364800    7.378700   10.006300    ( 0.0000,  0.0000,  0.0000)

Unit cell:
           periodic     x           y           z      points  spacing
  1. axis:    no    31.196000    0.000000    0.000000   144     0.2166
  2. axis:    no     0.000000   16.097900    0.000000    75     0.2146
  3. axis:    no     0.000000    0.000000   16.934000    80     0.2117

  Lengths:  31.196000  16.097900  16.934000
  Angles:   90.000000  90.000000  90.000000

Effective grid spacing dv^(1/3) = 0.2143

                     log10-error:    total        iterations:
           time      wfs    density  energy       poisson
iter:   1  05:25:19                -540.695944           
iter:   2  05:26:38  -0.81  -0.73  -535.928933           
iter:   3  05:27:54  -0.70  -0.75  -507.740148           
iter:   4  05:29:13  -1.69  -1.05  -506.350014           
iter:   5  05:30:29  -1.56  -1.11  -504.390517           
iter:   6  05:31:47  -1.18  -1.42  -506.484521           
iter:   7  05:33:04  -1.94  -1.37  -503.823065           
iter:   8  05:34:20  -1.90  -1.70  -503.536987           
iter:   9  05:35:36  -2.61  -2.08  -503.487409           
iter:  10  05:36:54  -3.16  -2.09  -503.446883           
iter:  11  05:38:11  -3.10  -2.40  -503.444848           
iter:  12  05:39:28  -3.79  -2.50  -503.429647           
iter:  13  05:40:45  -4.10  -2.74  -503.433939           
iter:  14  05:42:04  -4.14  -2.71  -503.427259           
iter:  15  05:43:20  -5.35  -3.13  -503.427193           
iter:  16  05:44:39  -5.29  -3.17  -503.427295           
iter:  17  05:45:58  -5.22  -3.31  -503.427241           
iter:  18  05:47:16  -5.56  -3.49  -503.427174           
iter:  19  05:48:34  -6.01  -3.56  -503.427117           
iter:  20  05:49:52  -6.19  -3.76  -503.427093           
iter:  21  05:51:08  -6.38  -3.94  -503.427091           
iter:  22  05:52:24  -6.72  -4.01  -503.427080           
iter:  23  05:53:42  -7.20  -4.38  -503.427082           
iter:  24  05:55:00  -7.07  -4.33  -503.427079           
iter:  25  05:56:18  -8.04  -4.51  -503.427078           

Converged after 25 iterations.

Dipole moment: (-1.123775, 1.305266, 0.820015) |e|*Ang

Energy contributions relative to reference atoms: (reference = -56743.579694)

Kinetic:       +394.446749
Potential:     -413.712242
External:        +0.000000
XC:            -483.823476
Entropy (-ST):   +0.000000
Local:           -0.338109
--------------------------
Free energy:   -503.427078
Extrapolated:  -503.427078

 Band  Eigenvalues  Occupancy
    0    -31.24330    2.00000
    1    -27.47926    2.00000
    2    -26.49021    2.00000
    3    -25.66162    2.00000
    4    -25.27890    2.00000
    5    -24.93815    2.00000
    6    -24.82559    2.00000
    7    -23.96756    2.00000
    8    -23.83711    2.00000
    9    -22.76692    2.00000
   10    -22.52977    2.00000
   11    -20.82938    2.00000
   12    -20.64439    2.00000
   13    -20.46340    2.00000
   14    -20.33298    2.00000
   15    -20.25058    2.00000
   16    -19.76146    2.00000
   17    -19.27493    2.00000
   18    -19.19297    2.00000
   19    -18.62114    2.00000
   20    -18.06943    2.00000
   21    -17.89587    2.00000
   22    -17.80966    2.00000
   23    -17.45693    2.00000
   24    -16.96841    2.00000
   25    -16.82581    2.00000
   26    -16.39732    2.00000
   27    -16.21701    2.00000
   28    -16.08519    2.00000
   29    -16.07269    2.00000
   30    -15.94478    2.00000
   31    -15.72680    2.00000
   32    -15.15517    2.00000
   33    -14.83825    2.00000
   34    -14.70880    2.00000
   35    -14.47197    2.00000
   36    -14.20526    2.00000
   37    -13.92661    2.00000
   38    -13.71216    2.00000
   39    -13.61482    2.00000
   40    -13.46532    2.00000
   41    -13.42038    2.00000
   42    -13.24110    2.00000
   43    -13.08424    2.00000
   44    -13.00462    2.00000
   45    -12.78283    2.00000
   46    -12.69283    2.00000
   47    -12.40112    2.00000
   48    -12.28926    2.00000
   49    -12.02678    2.00000
   50    -11.84880    2.00000
   51    -11.72798    2.00000
   52    -11.64478    2.00000
   53    -11.49603    2.00000
   54    -11.41268    2.00000
   55    -11.26732    2.00000
   56    -11.25522    2.00000
   57    -11.21564    2.00000
   58    -11.08030    2.00000
   59    -10.94703    2.00000
   60    -10.86907    2.00000
   61    -10.80067    2.00000
   62    -10.71131    2.00000
   63    -10.56369    2.00000
   64    -10.44529    2.00000
   65    -10.27557    2.00000
   66    -10.21661    2.00000
   67    -10.20300    2.00000
   68    -10.12056    2.00000
   69     -9.93327    2.00000
   70     -9.81484    2.00000
   71     -9.71438    2.00000
   72     -9.70052    2.00000
   73     -9.61404    2.00000
   74     -9.55993    2.00000
   75     -9.47670    2.00000
   76     -9.44464    2.00000
   77     -9.38793    2.00000
   78     -9.34486    2.00000
   79     -9.32571    2.00000
   80     -9.27366    2.00000
   81     -9.14877    2.00000
   82     -9.11795    2.00000
   83     -8.94624    2.00000
   84     -8.81442    2.00000
   85     -8.65848    2.00000
   86     -8.48302    2.00000
   87     -8.33773    2.00000
   88     -8.23982    2.00000
   89     -8.22327    2.00000
   90     -7.99859    2.00000
   91     -7.84948    2.00000
   92     -7.80674    2.00000
   93     -7.65824    2.00000
   94     -7.55788    2.00000
   95     -7.53196    2.00000
   96     -7.52211    2.00000
   97     -7.45648    2.00000
   98     -7.29952    2.00000
   99     -7.27988    2.00000
  100     -7.25260    2.00000
  101     -7.18402    2.00000
  102     -7.08856    2.00000
  103     -7.04536    2.00000
  104     -6.91913    2.00000
  105     -6.80244    2.00000
  106     -6.45906    2.00000
  107     -6.39631    2.00000
  108     -6.20132    2.00000
  109     -6.13036    2.00000
  110     -6.11405    2.00000
  111     -6.02223    2.00000
  112     -5.81771    2.00000
  113     -5.59845    2.00000
  114     -5.18773    2.00000
  115     -5.03646    2.00000
  116     -4.89048    2.00000
  117     -4.82291    2.00000
  118     -4.37407    2.00000
  119     -1.99436    0.00000
  120     -1.94736    0.00000
  121     -1.47892    0.00000
  122     -1.40517    0.00000
  123     -1.30375    0.00000
  124     -0.89107    0.00000
  125     -0.66609    0.00000
  126     -0.42565    0.00000
  127     -0.34956    0.00000
  128     -0.12563    0.00000
  129     -0.12112    0.00000
  130      0.05255    0.00000
  131      0.08450    0.00000
  132      0.10885    0.00000
  133      0.16849    0.00000
  134      0.22429    0.00000
  135      0.33419    0.00000
  136      0.42160    0.00000
  137      0.43696    0.00000
  138      0.44465    0.00000
  139      0.50717    0.00000
  140      0.53323    0.00000
  141      0.56334    0.00000
  142      0.63457    0.00000
  143      0.68526    0.00000
  144      0.73897    0.00000
  145      0.77986    0.00000
  146      0.85924    0.00000

Fermi level: -3.18422

Gap: 2.380 eV
Transition (v -> c):
  (s=0, k=0, n=118, [0.00, 0.00, 0.00]) -> (s=0, k=0, n=119, [0.00, 0.00, 0.00])

Forces in eV/Ang:
  0 H     0.59093    0.17073   -0.21256
  1 H    -0.11517   -0.08570    0.25574
  2 H     0.27798    0.24579   -0.19670
  3 H    -0.20713    0.01272    0.21405
  4 H     0.24462    0.03043   -0.30751
  5 H    -0.32146    0.21152    0.08629
  6 H    -0.14727    0.19996   -0.07641
  7 H     0.11480    0.04645   -0.02832
  8 H     0.20269    0.06664    0.06784
  9 H    -0.07184   -0.09400   -0.06324
 10 H     0.16905    0.29471    0.17504
 11 H    -0.21456    0.40610    0.18526
 12 H    -0.39958    0.70766    0.69125
 13 H    -0.16556    0.08482   -0.04446
 14 H     0.15004    0.49666    0.18333
 15 H     0.22906    0.04895    0.18847
 16 H    -0.24632    0.01160    0.11843
 17 H    -0.10345   -0.20242    0.00958
 18 H     0.13194   -0.07590   -0.02785
 19 H    -0.25374    0.34762    0.07701
 20 H     0.35272    0.16755    0.00947
 21 H     0.12622   -0.17345   -0.13608
 22 H    -0.13210   -0.25890    0.00616
 23 H    -0.04437   -0.13655   -0.45854
 24 H    -0.36408    0.17279   -0.03591
 25 H     0.21299    0.01773   -0.16876
 26 H     0.03397    0.00903    0.27868
 27 H     0.06888   -0.04432    0.05686
 28 H     0.17061    0.12510    0.12594
 29 H     0.31513   -0.06932   -0.02894
 30 H     0.02203    0.33047   -0.13389
 31 H    -0.37365   -0.09860   -0.05866
 32 H     0.20098    0.41953   -0.10042
 33 H    -0.19330    0.30675   -0.09024
 34 H    -0.03351   -0.16469   -0.27388
 35 H    -0.08953    0.21717    0.02383
 36 O    -0.20762    0.05405   -1.38751
 37 O     0.48974   -0.66746   -0.11467
 38 O    -0.46178    0.69114    0.81184
 39 F    -0.59571    0.60535    0.05805
 40 N    -0.54968    0.37766    0.01404
 41 N     0.74004   -0.43039   -0.30808
 42 O     0.50769    0.07835    1.01168
 43 O    -0.76113    0.76807    0.56244
 44 C    -0.59531   -0.17725    0.64514
 45 C    -0.30513    0.59299    0.38381
 46 C    -0.53602   -0.59974    0.34901
 47 C     0.15782    0.23165   -0.68462
 48 C    -0.15738   -0.58765    0.41050
 49 C     0.22051   -0.33278    0.40819
 50 C    -0.40056   -0.88564    0.36820
 51 C    -0.08087   -0.31225    0.38940
 52 C     0.14331    0.43975    0.10860
 53 C    -0.62367    0.36302    0.25967
 54 C     0.51004    0.65247   -0.33297
 55 C     0.24791   -0.02587   -0.41042
 56 C    -0.73319   -0.48380    0.21529
 57 C    -1.11789   -0.52401   -0.69617
 58 C     0.72284   -0.32637   -0.26631
 59 C     0.00848    0.75550    0.47272
 60 C     0.12443    0.68860   -0.14600
 61 C     0.57907   -0.03664    0.24734
 62 C    -0.52671    0.05421   -0.59318
 63 C    -0.68901   -0.08361   -0.11896
 64 C     0.66965   -1.41447   -0.16990
 65 C    -0.51712   -0.87123   -0.50434
 66 C     0.78390    0.44883    0.67338
 67 N     0.49353   -1.36559   -0.51077
 68 N     1.39746   -1.33203   -1.15784
 69 N     0.72069    0.93146    0.57584
 70 C     0.12486   -0.27562   -0.45491
 71 C     0.07347    0.22046   -0.14197
 72 C     0.07351   -0.80680   -0.30640
 73 C    -0.02604   -0.14700    0.05794
 74 C     0.37443    0.03322   -0.01898
 75 C    -0.75155   -0.12374    0.57344
 76 C    -0.28129   -0.26347    0.38108
 77 C    -0.50849   -0.20501   -0.18382
 78 C     1.03423    0.11498   -0.50753
 79 C     1.35907   -0.46013   -0.65076
 80 C     0.48716    0.41860    0.17173
 81 C    -1.94188    0.04452    0.24811

System changes: positions 

Initializing position-dependent things.

Density initialized from wave functions
           .----------------------------------------------------------------------------.  
          /|                                                                            |  
         / |                                                                            |  
        /  |                                                                            |  
       /   |                                                                            |  
      /    |                                                                            |  
     /     |                                                                            |  
    /      |                                                                            |  
   /       |                                                                            |  
  /        |                                                                            |  
 *         |                                                                            |  
 |         |                                 H H H                                      |  
 |         |       H          H   H            C  H                                     |  
 |         |      F  C          C H       H                                             |  
 |         |         C  N      N      H   HN CC   H   H                                 |  
 |         |           C  C C    C  C         H  C N  C C  CH      H     O              |  
 |         |           H C           C   C              N  C C  C  C  C    H            |  
 |         |               HC  C          O       O      H   O  H      O                |  
 |         |         HHCCH      C  C                       C H                          |  
 |         |                  H     H                                                   |  
 |         |            C                              H C                              |  
 |         .-------H--C-H--H----------------------------H--H----------------------------.  
 |        /                                                                            /   
 |       /            H                                                               /    
 |      /                                                                            /     
 |     /                                                                            /      
 |    /                                                                            /       
 |   /                                                                            /        
 |  /                                                                            /         
 | /                                                                            /          
 |/                                                                            /           
 *----------------------------------------------------------------------------*            

Positions:
   0 H     27.204442   10.645139    7.062063    ( 0.0000,  0.0000,  0.0000)
   1 H     24.132055    9.853576    8.365153    ( 0.0000,  0.0000,  0.0000)
   2 H     23.000671   10.646511    5.578390    ( 0.0000,  0.0000,  0.0000)
   3 H      4.897941   10.268982   10.088658    ( 0.0000,  0.0000,  0.0000)
   4 H      7.854595   10.805535    6.215107    ( 0.0000,  0.0000,  0.0000)
   5 H     18.742308   11.243722    8.217333    ( 0.0000,  0.0000,  0.0000)
   6 H      5.717896   12.100757    6.283808    ( 0.0000,  0.0000,  0.0000)
   7 H     20.921440   11.933964    7.282995    ( 0.0000,  0.0000,  0.0000)
   8 H     12.871296    5.389852    7.058169    ( 0.0000,  0.0000,  0.0000)
   9 H     10.488774    5.550457    6.507897    ( 0.0000,  0.0000,  0.0000)
  10 H     12.670915    9.107810    9.258201    ( 0.0000,  0.0000,  0.0000)
  11 H     17.429535    9.523401    9.137947    ( 0.0000,  0.0000,  0.0000)
  12 H     14.470692    8.498309    9.905675    ( 0.0000,  0.0000,  0.0000)
  13 H      9.170335   10.843412    9.967065    ( 0.0000,  0.0000,  0.0000)
  14 H     10.568043   11.285495    8.908519    ( 0.0000,  0.0000,  0.0000)
  15 H     10.781872   10.204999   10.336092    ( 0.0000,  0.0000,  0.0000)
  16 H     20.384681    6.431966    5.604192    ( 0.0000,  0.0000,  0.0000)
  17 H     20.960722    4.769908    5.911537    ( 0.0000,  0.0000,  0.0000)
  18 H     22.003685    5.958516    5.083402    ( 0.0000,  0.0000,  0.0000)
  19 H     21.138875    6.065666    8.043200    ( 0.0000,  0.0000,  0.0000)
  20 H     22.726039    5.637394    7.429135    ( 0.0000,  0.0000,  0.0000)
  21 H      8.115303    4.146622    5.799156    ( 0.0000,  0.0000,  0.0000)
  22 H      6.412313    3.996301    6.268988    ( 0.0000,  0.0000,  0.0000)
  23 H      7.019766    5.314149    3.993449    ( 0.0000,  0.0000,  0.0000)
  24 H      5.817299    6.018968    5.094787    ( 0.0000,  0.0000,  0.0000)
  25 H     18.204743    6.548853   11.770989    ( 0.0000,  0.0000,  0.0000)
  26 H     16.867285    6.424329   12.937981    ( 0.0000,  0.0000,  0.0000)
  27 H      6.703484    5.523567    8.051712    ( 0.0000,  0.0000,  0.0000)
  28 H      8.417437    5.165987    7.846799    ( 0.0000,  0.0000,  0.0000)
  29 H      8.811302    6.699910    4.965787    ( 0.0000,  0.0000,  0.0000)
  30 H      7.448215    7.823921    4.809187    ( 0.0000,  0.0000,  0.0000)
  31 H     15.718662    8.397291   11.914962    ( 0.0000,  0.0000,  0.0000)
  32 H     17.364871    8.868293   11.449165    ( 0.0000,  0.0000,  0.0000)
  33 H     15.267239    5.767682   11.139811    ( 0.0000,  0.0000,  0.0000)
  34 H     16.736721    5.159247   10.334687    ( 0.0000,  0.0000,  0.0000)
  35 H      6.749621    7.520902    7.057640    ( 0.0000,  0.0000,  0.0000)
  36 O     25.596234   10.810572    5.522278    ( 0.0000,  0.0000,  0.0000)
  37 O     14.989296    6.051665    7.919162    ( 0.0000,  0.0000,  0.0000)
  38 O     18.086503    6.480573    8.433398    ( 0.0000,  0.0000,  0.0000)
  39 F      3.991490   11.957148    8.269829    ( 0.0000,  0.0000,  0.0000)
  40 N      6.687447    9.715595    9.208401    ( 0.0000,  0.0000,  0.0000)
  41 N     20.144772    8.184152    7.870399    ( 0.0000,  0.0000,  0.0000)
  42 O     26.400653   10.478119    7.614253    ( 0.0000,  0.0000,  0.0000)
  43 O     22.285027    7.615972    7.165635    ( 0.0000,  0.0000,  0.0000)
  44 C     25.386096   10.529168    6.713816    ( 0.0000,  0.0000,  0.0000)
  45 C     14.390941    6.985371    8.497783    ( 0.0000,  0.0000,  0.0000)
  46 C     17.568443    7.450932    8.952886    ( 0.0000,  0.0000,  0.0000)
  47 C     24.112055   10.207309    7.324720    ( 0.0000,  0.0000,  0.0000)
  48 C     22.979952   10.305005    6.625864    ( 0.0000,  0.0000,  0.0000)
  49 C      5.547150   10.419046    9.227531    ( 0.0000,  0.0000,  0.0000)
  50 C     21.334078    8.559348    7.405460    ( 0.0000,  0.0000,  0.0000)
  51 C      7.490245    9.876639    8.135163    ( 0.0000,  0.0000,  0.0000)
  52 C     19.226347    9.133782    8.157351    ( 0.0000,  0.0000,  0.0000)
  53 C      7.176590   10.728786    7.071710    ( 0.0000,  0.0000,  0.0000)
  54 C     19.488486   10.491721    7.966343    ( 0.0000,  0.0000,  0.0000)
  55 C      5.998942   11.452130    7.110137    ( 0.0000,  0.0000,  0.0000)
  56 C     20.709826   10.866789    7.453776    ( 0.0000,  0.0000,  0.0000)
  57 C     12.290730    6.239714    7.418855    ( 0.0000,  0.0000,  0.0000)
  58 C      5.173526   11.288238    8.207196    ( 0.0000,  0.0000,  0.0000)
  59 C     12.946321    7.229293    8.207653    ( 0.0000,  0.0000,  0.0000)
  60 C     21.685278    9.916337    7.159514    ( 0.0000,  0.0000,  0.0000)
  61 C     10.955072    6.334477    7.116233    ( 0.0000,  0.0000,  0.0000)
  62 C      8.801376    7.786574    7.474426    ( 0.0000,  0.0000,  0.0000)
  63 C     12.200357    8.320006    8.659901    ( 0.0000,  0.0000,  0.0000)
  64 C      8.681366    9.009893    8.084973    ( 0.0000,  0.0000,  0.0000)
  65 C     10.182613    7.409154    7.579195    ( 0.0000,  0.0000,  0.0000)
  66 C     10.844499    8.412212    8.350620    ( 0.0000,  0.0000,  0.0000)
  67 N     18.004450    8.750892    8.733203    ( 0.0000,  0.0000,  0.0000)
  68 N     15.038664    7.753771    9.428859    ( 0.0000,  0.0000,  0.0000)
  69 N      9.884096    9.358007    8.683926    ( 0.0000,  0.0000,  0.0000)
  70 C     10.110484   10.492763    9.514501    ( 0.0000,  0.0000,  0.0000)
  71 C     21.259050    5.829649    5.881172    ( 0.0000,  0.0000,  0.0000)
  72 C     21.838750    6.240674    7.212823    ( 0.0000,  0.0000,  0.0000)
  73 C      7.219228    4.715600    6.088328    ( 0.0000,  0.0000,  0.0000)
  74 C      6.875549    5.721075    4.999129    ( 0.0000,  0.0000,  0.0000)
  75 C     17.116264    6.692132   11.914492    ( 0.0000,  0.0000,  0.0000)
  76 C      7.530082    5.556536    7.332344    ( 0.0000,  0.0000,  0.0000)
  77 C      7.779736    6.902171    5.302874    ( 0.0000,  0.0000,  0.0000)
  78 C     16.642675    8.057643   11.397650    ( 0.0000,  0.0000,  0.0000)
  79 C     16.298015    6.028427   10.802003    ( 0.0000,  0.0000,  0.0000)
  80 C      7.706659    7.017680    6.831753    ( 0.0000,  0.0000,  0.0000)
  81 C     16.337059    7.379336   10.009844    ( 0.0000,  0.0000,  0.0000)

Unit cell:
           periodic     x           y           z      points  spacing
  1. axis:    no    31.196000    0.000000    0.000000   144     0.2166
  2. axis:    no     0.000000   16.097900    0.000000    75     0.2146
  3. axis:    no     0.000000    0.000000   16.934000    80     0.2117

  Lengths:  31.196000  16.097900  16.934000
  Angles:   90.000000  90.000000  90.000000

Effective grid spacing dv^(1/3) = 0.2143

                     log10-error:    total        iterations:
           time      wfs    density  energy       poisson
iter:   1  05:58:36  -1.93         -503.975936           
iter:   2  05:59:52  -3.30  -2.06  -503.927728           
iter:   3  06:01:10  -2.50  -2.08  -503.762957           
iter:   4  06:02:28  -3.86  -2.44  -503.758622           
iter:   5  06:03:44  -3.86  -2.46  -503.747314           
iter:   6  06:05:01  -3.60  -2.65  -503.741213           
iter:   7  06:06:18  -4.54  -2.81  -503.738402           
iter:   8  06:07:34  -4.88  -3.03  -503.737708           
iter:   9  06:08:50  -5.60  -3.31  -503.737703           
iter:  10  06:10:06  -5.42  -3.36  -503.737717           
iter:  11  06:11:25  -6.32  -3.67  -503.737683           
iter:  12  06:12:40  -7.48  -3.73  -503.737686           
iter:  13  06:13:58  -6.47  -3.80  -503.737693           
iter:  14  06:15:14  -6.90  -4.08  -503.737686           
iter:  15  06:16:32  -7.42  -4.18  -503.737686           

Converged after 15 iterations.

Dipole moment: (-1.220452, 1.215935, 0.844596) |e|*Ang

Energy contributions relative to reference atoms: (reference = -56743.579694)

Kinetic:       +386.630325
Potential:     -408.152009
External:        +0.000000
XC:            -481.856267
Entropy (-ST):   +0.000000
Local:           -0.359734
--------------------------
Free energy:   -503.737686
Extrapolated:  -503.737686

 Band  Eigenvalues  Occupancy
    0    -30.92129    2.00000
    1    -27.18034    2.00000
    2    -26.57505    2.00000
    3    -25.83542    2.00000
    4    -25.09614    2.00000
    5    -24.83467    2.00000
    6    -24.58593    2.00000
    7    -23.94096    2.00000
    8    -23.92673    2.00000
    9    -22.81863    2.00000
   10    -22.50905    2.00000
   11    -20.88518    2.00000
   12    -20.67332    2.00000
   13    -20.50183    2.00000
   14    -20.33403    2.00000
   15    -20.32378    2.00000
   16    -19.84005    2.00000
   17    -19.26253    2.00000
   18    -19.25143    2.00000
   19    -18.61990    2.00000
   20    -18.19482    2.00000
   21    -17.93905    2.00000
   22    -17.84613    2.00000
   23    -17.51193    2.00000
   24    -17.01202    2.00000
   25    -16.87052    2.00000
   26    -16.39301    2.00000
   27    -16.28162    2.00000
   28    -16.08751    2.00000
   29    -16.04767    2.00000
   30    -15.90508    2.00000
   31    -15.74724    2.00000
   32    -15.15571    2.00000
   33    -14.80947    2.00000
   34    -14.65349    2.00000
   35    -14.52093    2.00000
   36    -14.17637    2.00000
   37    -13.94375    2.00000
   38    -13.65898    2.00000
   39    -13.53204    2.00000
   40    -13.43412    2.00000
   41    -13.40925    2.00000
   42    -13.20481    2.00000
   43    -13.10352    2.00000
   44    -12.94881    2.00000
   45    -12.76184    2.00000
   46    -12.65737    2.00000
   47    -12.42877    2.00000
   48    -12.23123    2.00000
   49    -11.98767    2.00000
   50    -11.93296    2.00000
   51    -11.75761    2.00000
   52    -11.68526    2.00000
   53    -11.40744    2.00000
   54    -11.35113    2.00000
   55    -11.31855    2.00000
   56    -11.25495    2.00000
   57    -11.18341    2.00000
   58    -11.12802    2.00000
   59    -10.99289    2.00000
   60    -10.89642    2.00000
   61    -10.81419    2.00000
   62    -10.73530    2.00000
   63    -10.57016    2.00000
   64    -10.27842    2.00000
   65    -10.25046    2.00000
   66    -10.23393    2.00000
   67    -10.20049    2.00000
   68    -10.13591    2.00000
   69     -9.96073    2.00000
   70     -9.83642    2.00000
   71     -9.70337    2.00000
   72     -9.65266    2.00000
   73     -9.62552    2.00000
   74     -9.60893    2.00000
   75     -9.47686    2.00000
   76     -9.45938    2.00000
   77     -9.37501    2.00000
   78     -9.31899    2.00000
   79     -9.25837    2.00000
   80     -9.23254    2.00000
   81     -9.12732    2.00000
   82     -9.06928    2.00000
   83     -8.97230    2.00000
   84     -8.76802    2.00000
   85     -8.66311    2.00000
   86     -8.48195    2.00000
   87     -8.38833    2.00000
   88     -8.32455    2.00000
   89     -8.20250    2.00000
   90     -8.04576    2.00000
   91     -7.89596    2.00000
   92     -7.81013    2.00000
   93     -7.69883    2.00000
   94     -7.61862    2.00000
   95     -7.57921    2.00000
   96     -7.55528    2.00000
   97     -7.47947    2.00000
   98     -7.35043    2.00000
   99     -7.31925    2.00000
  100     -7.31200    2.00000
  101     -7.18395    2.00000
  102     -7.14448    2.00000
  103     -7.04932    2.00000
  104     -6.93047    2.00000
  105     -6.83780    2.00000
  106     -6.44884    2.00000
  107     -6.40558    2.00000
  108     -6.23560    2.00000
  109     -6.16108    2.00000
  110     -6.10858    2.00000
  111     -6.01329    2.00000
  112     -5.72101    2.00000
  113     -5.61787    2.00000
  114     -5.13633    2.00000
  115     -4.97841    2.00000
  116     -4.83400    2.00000
  117     -4.79176    2.00000
  118     -4.50541    2.00000
  119     -2.01350    0.00000
  120     -1.95248    0.00000
  121     -1.53823    0.00000
  122     -1.46801    0.00000
  123     -1.24785    0.00000
  124     -0.76132    0.00000
  125     -0.72476    0.00000
  126     -0.41998    0.00000
  127     -0.37471    0.00000
  128     -0.14654    0.00000
  129     -0.08951    0.00000
  130      0.03263    0.00000
  131      0.05874    0.00000
  132      0.11740    0.00000
  133      0.15558    0.00000
  134      0.19785    0.00000
  135      0.32069    0.00000
  136      0.39785    0.00000
  137      0.40463    0.00000
  138      0.42965    0.00000
  139      0.48650    0.00000
  140      0.51499    0.00000
  141      0.53310    0.00000
  142      0.59377    0.00000
  143      0.61270    0.00000
  144      0.69767    0.00000
  145      0.71395    0.00000
  146      0.77567    0.00000

Fermi level: -3.25946

Gap: 2.492 eV
Transition (v -> c):
  (s=0, k=0, n=118, [0.00, 0.00, 0.00]) -> (s=0, k=0, n=119, [0.00, 0.00, 0.00])

Forces in eV/Ang:
  0 H     0.16700    0.09142    0.02801
  1 H    -0.09201    0.07238   -0.16151
  2 H     0.23780    0.11777    0.13730
  3 H    -0.18767    0.02202    0.19651
  4 H    -0.03675    0.00563    0.04303
  5 H    -0.15934    0.13167    0.02721
  6 H    -0.12699    0.18996   -0.08710
  7 H     0.00811   -0.23169    0.03020
  8 H     0.14187    0.03710    0.02784
  9 H     0.03487    0.02143    0.03601
 10 H    -0.00446    0.07063    0.00048
 11 H     0.38662   -0.45461   -0.25781
 12 H     0.60078   -0.63620   -0.17949
 13 H     0.02938    0.01056   -0.13590
 14 H     0.12489    0.43909    0.21197
 15 H     0.11469    0.11163    0.05379
 16 H    -0.18913    0.00582    0.12852
 17 H    -0.04755   -0.01267   -0.01980
 18 H     0.12868   -0.05906   -0.06420
 19 H    -0.14636    0.26163   -0.05763
 20 H     0.40995    0.12090    0.00880
 21 H     0.06173   -0.13187   -0.08450
 22 H    -0.08477   -0.20582   -0.02349
 23 H    -0.04810   -0.06262   -0.27085
 24 H    -0.06081    0.06842   -0.06243
 25 H    -0.18617    0.05205   -0.01569
 26 H    -0.07680   -0.03218    0.44105
 27 H    -0.08272   -0.04502    0.18231
 28 H     0.10610    0.10947    0.12056
 29 H     0.03298   -0.01408    0.03752
 30 H     0.02918    0.20283   -0.09303
 31 H     0.10731   -0.17389   -0.26396
 32 H     0.31105    0.45628   -0.15573
 33 H     0.35491    0.30827   -0.26882
 34 H     0.20844   -0.46165   -0.47298
 35 H     0.04265    0.15423    0.00532
 36 O    -0.43613   -0.43145    0.80364
 37 O    -0.30550    0.25001    0.37225
 38 O    -0.06117   -0.50589    0.32676
 39 F     0.14536    0.17071   -0.01118
 40 N     0.10011   -0.12037    0.11299
 41 N    -0.45233   -0.09881    0.11440
 42 O     0.27143    0.20338    0.11504
 43 O    -0.25087   -0.06127    0.33667
 44 C     0.55028    0.34425   -1.15756
 45 C     0.33857   -0.89697   -0.64741
 46 C    -0.81170    0.17979    0.64582
 47 C     0.10340   -0.15550    0.32894
 48 C    -0.20995   -0.13277   -0.37621
 49 C    -0.31110    0.17962    0.12318
 50 C     0.15249    0.43655    0.05967
 51 C     0.06000   -0.30058    0.06108
 52 C     0.49604   -0.15010   -0.07891
 53 C     0.39614   -0.17305   -0.00791
 54 C    -0.64924    0.03534    0.19808
 55 C    -0.21945    0.21040   -0.25620
 56 C     0.40488    0.35387   -0.31243
 57 C     0.52226    0.22127    0.22750
 58 C    -0.16070    0.03745    0.03534
 59 C    -0.36131   -0.19350   -0.21727
 60 C    -0.36669   -0.27661    0.19949
 61 C    -0.60058   -0.38113   -0.29067
 62 C     0.30061   -0.39354   -0.50007
 63 C     0.24430    0.38398    0.40950
 64 C     0.20943    0.08433    0.42390
 65 C     0.07986    0.22779    0.26601
 66 C    -0.63665   -0.22388   -0.13696
 67 N    -0.26647    0.25006    0.06226
 68 N    -0.23095    0.99207    0.25275
 69 N     0.32474   -0.30290   -0.33805
 70 C     0.12957    0.35660    0.16299
 71 C    -0.03471   -0.05427   -0.16533
 72 C    -0.05950   -0.23313   -0.03121
 73 C     0.01992   -0.16461    0.06969
 74 C    -0.12592   -0.06863   -0.14313
 75 C     0.18137   -0.07721   -0.04822
 76 C     0.04080   -0.08432    0.13963
 77 C     0.03395    0.01680   -0.17624
 78 C    -0.13473    0.06645   -0.09404
 79 C     0.00842   -0.07663    0.01308
 80 C    -0.22969    0.06816   -0.04279
 81 C    -0.55412   -0.30565    0.05882

System changes: positions 

Initializing position-dependent things.

Density initialized from wave functions
           .----------------------------------------------------------------------------.  
          /|                                                                            |  
         / |                                                                            |  
        /  |                                                                            |  
       /   |                                                                            |  
      /    |                                                                            |  
     /     |                                                                            |  
    /      |                                                                            |  
   /       |                                                                            |  
  /        |                                                                            |  
 *         |                                                                            |  
 |         |                                 H H H                                      |  
 |         |       H          H   H            C  H                                     |  
 |         |      F  C          C H       H                                             |  
 |         |         C  N      N      H   HN CC   H   H                                 |  
 |         |           C  C C    C  C         H  C N  C C  CH      H     O              |  
 |         |           H C           C   C              N  C C  C  C  C    H            |  
 |         |               HC  C          O       O      H   O  H      O                |  
 |         |         HHCCH      C  C                       C H                          |  
 |         |                  H     H                                                   |  
 |         |            C                              H C                              |  
 |         .-------H--C-H--H----------------------------H--H----------------------------.  
 |        /                                                                            /   
 |       /            H                                                               /    
 |      /                                                                            /     
 |     /                                                                            /      
 |    /                                                                            /       
 |   /                                                                            /        
 |  /                                                                            /         
 | /                                                                            /          
 |/                                                                            /           
 *----------------------------------------------------------------------------*            

Positions:
   0 H     27.208532   10.646851    7.061674    ( 0.0000,  0.0000,  0.0000)
   1 H     24.130528    9.854169    8.364053    ( 0.0000,  0.0000,  0.0000)
   2 H     23.004550   10.648806    5.579397    ( 0.0000,  0.0000,  0.0000)
   3 H      4.894922   10.269296   10.091809    ( 0.0000,  0.0000,  0.0000)
   4 H      7.854988   10.805709    6.214574    ( 0.0000,  0.0000,  0.0000)
   5 H     18.739242   11.246068    8.217965    ( 0.0000,  0.0000,  0.0000)
   6 H      5.715829   12.103779    6.282475    ( 0.0000,  0.0000,  0.0000)
   7 H     20.921936   11.931279    7.283268    ( 0.0000,  0.0000,  0.0000)
   8 H     12.873737    5.390538    7.058745    ( 0.0000,  0.0000,  0.0000)
   9 H     10.488954    5.550396    6.508120    ( 0.0000,  0.0000,  0.0000)
  10 H     12.671444    9.109695    9.258811    ( 0.0000,  0.0000,  0.0000)
  11 H     17.433541    9.519221    9.135421    ( 0.0000,  0.0000,  0.0000)
  12 H     14.476689    8.492940    9.905857    ( 0.0000,  0.0000,  0.0000)
  13 H      9.170124   10.843834    9.965243    ( 0.0000,  0.0000,  0.0000)
  14 H     10.570095   11.292601    8.911754    ( 0.0000,  0.0000,  0.0000)
  15 H     10.784071   10.206539   10.337403    ( 0.0000,  0.0000,  0.0000)
  16 H     20.381509    6.432077    5.606179    ( 0.0000,  0.0000,  0.0000)
  17 H     20.959781    4.769054    5.911327    ( 0.0000,  0.0000,  0.0000)
  18 H     22.005720    5.957529    5.082518    ( 0.0000,  0.0000,  0.0000)
  19 H     21.136202    6.070078    8.042758    ( 0.0000,  0.0000,  0.0000)
  20 H     22.732290    5.639456    7.429276    ( 0.0000,  0.0000,  0.0000)
  21 H      8.116497    4.144404    5.797649    ( 0.0000,  0.0000,  0.0000)
  22 H      6.410816    3.992881    6.268721    ( 0.0000,  0.0000,  0.0000)
  23 H      7.019022    5.312909    3.988541    ( 0.0000,  0.0000,  0.0000)
  24 H      5.815296    6.020405    5.093896    ( 0.0000,  0.0000,  0.0000)
  25 H     18.203192    6.549554   11.770214    ( 0.0000,  0.0000,  0.0000)
  26 H     16.866460    6.423965   12.944358    ( 0.0000,  0.0000,  0.0000)
  27 H      6.702706    5.522861    8.054147    ( 0.0000,  0.0000,  0.0000)
  28 H      8.419329    5.167763    7.848714    ( 0.0000,  0.0000,  0.0000)
  29 H      8.812794    6.699497    4.966147    ( 0.0000,  0.0000,  0.0000)
  30 H      7.448649    7.827552    4.807583    ( 0.0000,  0.0000,  0.0000)
  31 H     15.718690    8.394816   11.911519    ( 0.0000,  0.0000,  0.0000)
  32 H     17.369384    8.875344   11.446907    ( 0.0000,  0.0000,  0.0000)
  33 H     15.270929    5.772526   11.136199    ( 0.0000,  0.0000,  0.0000)
  34 H     16.739165    5.153011   10.327935    ( 0.0000,  0.0000,  0.0000)
  35 H      6.749836    7.523546    7.057788    ( 0.0000,  0.0000,  0.0000)
  36 O     25.590162   10.805461    5.527357    ( 0.0000,  0.0000,  0.0000)
  37 O     14.987235    6.052431    7.923337    ( 0.0000,  0.0000,  0.0000)
  38 O     18.084158    6.476747    8.440212    ( 0.0000,  0.0000,  0.0000)
  39 F      3.991219   11.961333    8.269892    ( 0.0000,  0.0000,  0.0000)
  40 N      6.686780    9.715421    9.209836    ( 0.0000,  0.0000,  0.0000)
  41 N     20.141772    8.181453    7.870740    ( 0.0000,  0.0000,  0.0000)
  42 O     26.405738   10.480887    7.619157    ( 0.0000,  0.0000,  0.0000)
  43 O     22.279319    7.617871    7.171710    ( 0.0000,  0.0000,  0.0000)
  44 C     25.390798   10.532783    6.701830    ( 0.0000,  0.0000,  0.0000)
  45 C     14.394045    6.976404    8.491158    ( 0.0000,  0.0000,  0.0000)
  46 C     17.556626    7.451070    8.962020    ( 0.0000,  0.0000,  0.0000)
  47 C     24.113869   10.206199    7.326396    ( 0.0000,  0.0000,  0.0000)
  48 C     22.976831   10.301347    6.622662    ( 0.0000,  0.0000,  0.0000)
  49 C      5.544091   10.420103    9.230452    ( 0.0000,  0.0000,  0.0000)
  50 C     21.334568    8.561652    7.407463    ( 0.0000,  0.0000,  0.0000)
  51 C      7.490702    9.871871    8.137257    ( 0.0000,  0.0000,  0.0000)
  52 C     19.232933    9.133457    8.156757    ( 0.0000,  0.0000,  0.0000)
  53 C      7.179302   10.727914    7.072509    ( 0.0000,  0.0000,  0.0000)
  54 C     19.482275   10.494407    7.967626    ( 0.0000,  0.0000,  0.0000)
  55 C      5.997103   11.454625    7.105575    ( 0.0000,  0.0000,  0.0000)
  56 C     20.712267   10.869464    7.450682    ( 0.0000,  0.0000,  0.0000)
  57 C     12.293284    6.240623    7.419245    ( 0.0000,  0.0000,  0.0000)
  58 C      5.174048   11.287571    8.206710    ( 0.0000,  0.0000,  0.0000)
  59 C     12.941914    7.229524    8.206617    ( 0.0000,  0.0000,  0.0000)
  60 C     21.681205    9.915317    7.161460    ( 0.0000,  0.0000,  0.0000)
  61 C     10.949697    6.329670    7.113518    ( 0.0000,  0.0000,  0.0000)
  62 C      8.803249    7.781929    7.466239    ( 0.0000,  0.0000,  0.0000)
  63 C     12.200979    8.324432    8.664518    ( 0.0000,  0.0000,  0.0000)
  64 C      8.686249    9.006047    8.089591    ( 0.0000,  0.0000,  0.0000)
  65 C     10.181808    7.408944    7.580721    ( 0.0000,  0.0000,  0.0000)
  66 C     10.839387    8.411012    8.351262    ( 0.0000,  0.0000,  0.0000)
  67 N     18.002882    8.749249    8.732205    ( 0.0000,  0.0000,  0.0000)
  68 N     15.040651    7.761355    9.427967    ( 0.0000,  0.0000,  0.0000)
  69 N      9.890570    9.357502    8.681763    ( 0.0000,  0.0000,  0.0000)
  70 C     10.112506   10.496190    9.514933    ( 0.0000,  0.0000,  0.0000)
  71 C     21.258877    5.829744    5.878652    ( 0.0000,  0.0000,  0.0000)
  72 C     21.838273    6.235027    7.211382    ( 0.0000,  0.0000,  0.0000)
  73 C      7.219383    4.713071    6.089383    ( 0.0000,  0.0000,  0.0000)
  74 C      6.875295    5.720347    4.997306    ( 0.0000,  0.0000,  0.0000)
  75 C     17.115897    6.690757   11.915879    ( 0.0000,  0.0000,  0.0000)
  76 C      7.529612    5.554591    7.335374    ( 0.0000,  0.0000,  0.0000)
  77 C      7.778398    6.901670    5.300076    ( 0.0000,  0.0000,  0.0000)
  78 C     16.644590    8.058855   11.394743    ( 0.0000,  0.0000,  0.0000)
  79 C     16.302809    6.025898   10.799918    ( 0.0000,  0.0000,  0.0000)
  80 C      7.705521    7.019962    6.831821    ( 0.0000,  0.0000,  0.0000)
  81 C     16.323553    7.375737   10.011423    ( 0.0000,  0.0000,  0.0000)

Unit cell:
           periodic     x           y           z      points  spacing
  1. axis:    no    31.196000    0.000000    0.000000   144     0.2166
  2. axis:    no     0.000000   16.097900    0.000000    75     0.2146
  3. axis:    no     0.000000    0.000000   16.934000    80     0.2117

  Lengths:  31.196000  16.097900  16.934000
  Angles:   90.000000  90.000000  90.000000

Effective grid spacing dv^(1/3) = 0.2143

                     log10-error:    total        iterations:
           time      wfs    density  energy       poisson
iter:   1  06:18:55  -2.54         -503.918725           
iter:   2  06:20:11  -3.93  -2.46  -503.908211           
iter:   3  06:21:27  -3.07  -2.48  -503.878711           
iter:   4  06:22:42  -4.24  -2.79  -503.874900           
iter:   5  06:23:56  -4.06  -2.81  -503.875764           
iter:   6  06:25:11  -3.97  -2.92  -503.871122           
iter:   7  06:26:29  -4.66  -3.20  -503.871390           
iter:   8  06:27:44  -5.32  -3.29  -503.870668           
iter:   9  06:29:02  -5.25  -3.62  -503.870657           
iter:  10  06:30:19  -5.74  -3.70  -503.870616           
iter:  11  06:31:35  -6.70  -3.98  -503.870598           
iter:  12  06:32:54  -7.01  -4.00  -503.870600           
iter:  13  06:34:08  -6.88  -4.10  -503.870606           
iter:  14  06:35:26  -7.20  -4.27  -503.870602           
iter:  15  06:36:40  -7.83  -4.40  -503.870602           

Converged after 15 iterations.

Dipole moment: (-1.207815, 1.205600, 0.793927) |e|*Ang

Energy contributions relative to reference atoms: (reference = -56743.579694)

Kinetic:       +384.130024
Potential:     -406.330828
External:        +0.000000
XC:            -481.306332
Entropy (-ST):   +0.000000
Local:           -0.363465
--------------------------
Free energy:   -503.870602
Extrapolated:  -503.870602

 Band  Eigenvalues  Occupancy
    0    -30.87044    2.00000
    1    -27.14299    2.00000
    2    -26.57419    2.00000
    3    -25.69042    2.00000
    4    -25.26939    2.00000
    5    -24.87484    2.00000
    6    -24.81785    2.00000
    7    -23.91879    2.00000
    8    -23.85137    2.00000
    9    -22.86533    2.00000
   10    -22.46251    2.00000
   11    -20.87128    2.00000
   12    -20.64405    2.00000
   13    -20.47570    2.00000
   14    -20.30361    2.00000
   15    -20.29936    2.00000
   16    -19.82303    2.00000
   17    -19.24634    2.00000
   18    -19.20300    2.00000
   19    -18.59827    2.00000
   20    -18.19002    2.00000
   21    -17.92339    2.00000
   22    -17.83082    2.00000
   23    -17.51249    2.00000
   24    -17.00842    2.00000
   25    -16.81098    2.00000
   26    -16.38911    2.00000
   27    -16.24524    2.00000
   28    -16.06256    2.00000
   29    -16.03939    2.00000
   30    -15.88611    2.00000
   31    -15.73469    2.00000
   32    -15.09020    2.00000
   33    -14.80602    2.00000
   34    -14.62636    2.00000
   35    -14.50875    2.00000
   36    -14.17387    2.00000
   37    -13.96183    2.00000
   38    -13.64638    2.00000
   39    -13.51324    2.00000
   40    -13.42454    2.00000
   41    -13.37179    2.00000
   42    -13.17374    2.00000
   43    -13.08561    2.00000
   44    -12.91923    2.00000
   45    -12.73941    2.00000
   46    -12.63608    2.00000
   47    -12.43324    2.00000
   48    -12.21051    2.00000
   49    -11.96207    2.00000
   50    -11.93165    2.00000
   51    -11.72804    2.00000
   52    -11.66785    2.00000
   53    -11.39442    2.00000
   54    -11.32853    2.00000
   55    -11.31898    2.00000
   56    -11.24428    2.00000
   57    -11.18109    2.00000
   58    -11.13577    2.00000
   59    -10.99370    2.00000
   60    -10.85395    2.00000
   61    -10.79046    2.00000
   62    -10.72074    2.00000
   63    -10.53902    2.00000
   64    -10.28041    2.00000
   65    -10.26691    2.00000
   66    -10.23849    2.00000
   67    -10.21601    2.00000
   68    -10.13934    2.00000
   69     -9.94381    2.00000
   70     -9.83579    2.00000
   71     -9.69852    2.00000
   72     -9.64539    2.00000
   73     -9.60778    2.00000
   74     -9.59129    2.00000
   75     -9.47652    2.00000
   76     -9.43248    2.00000
   77     -9.39767    2.00000
   78     -9.33898    2.00000
   79     -9.27104    2.00000
   80     -9.26576    2.00000
   81     -9.12625    2.00000
   82     -9.04475    2.00000
   83     -8.94906    2.00000
   84     -8.79635    2.00000
   85     -8.66471    2.00000
   86     -8.51310    2.00000
   87     -8.37635    2.00000
   88     -8.31307    2.00000
   89     -8.18618    2.00000
   90     -8.06297    2.00000
   91     -7.89900    2.00000
   92     -7.83183    2.00000
   93     -7.67694    2.00000
   94     -7.62626    2.00000
   95     -7.58573    2.00000
   96     -7.52517    2.00000
   97     -7.50449    2.00000
   98     -7.33787    2.00000
   99     -7.32852    2.00000
  100     -7.31389    2.00000
  101     -7.18130    2.00000
  102     -7.14806    2.00000
  103     -7.06576    2.00000
  104     -6.92026    2.00000
  105     -6.86132    2.00000
  106     -6.44385    2.00000
  107     -6.40145    2.00000
  108     -6.23230    2.00000
  109     -6.15250    2.00000
  110     -6.10043    2.00000
  111     -5.98192    2.00000
  112     -5.81935    2.00000
  113     -5.64246    2.00000
  114     -5.15343    2.00000
  115     -5.03801    2.00000
  116     -4.81164    2.00000
  117     -4.77824    2.00000
  118     -4.50093    2.00000
  119     -1.97424    0.00000
  120     -1.96833    0.00000
  121     -1.53897    0.00000
  122     -1.46467    0.00000
  123     -1.21737    0.00000
  124     -0.77094    0.00000
  125     -0.70358    0.00000
  126     -0.44149    0.00000
  127     -0.37048    0.00000
  128     -0.13460    0.00000
  129     -0.07338    0.00000
  130      0.03710    0.00000
  131      0.05781    0.00000
  132      0.12940    0.00000
  133      0.15866    0.00000
  134      0.20077    0.00000
  135      0.32149    0.00000
  136      0.39438    0.00000
  137      0.40770    0.00000
  138      0.43333    0.00000
  139      0.49072    0.00000
  140      0.51326    0.00000
  141      0.53235    0.00000
  142      0.59554    0.00000
  143      0.61631    0.00000
  144      0.69196    0.00000
  145      0.71516    0.00000
  146      0.76741    0.00000

Fermi level: -3.23759

Gap: 2.527 eV
Transition (v -> c):
  (s=0, k=0, n=118, [0.00, 0.00, 0.00]) -> (s=0, k=0, n=119, [0.00, 0.00, 0.00])

Forces in eV/Ang:
  0 H     0.14876    0.07234    0.13096
  1 H    -0.05356    0.04377   -0.07428
  2 H     0.19144    0.10853    0.07505
  3 H    -0.17620    0.03279    0.18079
  4 H    -0.01136   -0.00526    0.04576
  5 H    -0.22101    0.16207    0.04861
  6 H    -0.13283    0.22080   -0.14026
  7 H     0.06024   -0.04863   -0.01862
  8 H     0.14639    0.04202    0.02821
  9 H    -0.07540   -0.13830   -0.09110
 10 H     0.03577    0.15232    0.06152
 11 H     0.27259   -0.26986   -0.17945
 12 H     0.35729   -0.37448   -0.01772
 13 H     0.03289   -0.00321   -0.13888
 14 H     0.10456    0.38337    0.21280
 15 H     0.08547    0.13166    0.02821
 16 H    -0.13828   -0.01337    0.12458
 17 H    -0.03733    0.01717   -0.03844
 18 H     0.10284   -0.05234   -0.06874
 19 H    -0.12270    0.18555   -0.08502
 20 H     0.33409    0.13398   -0.00259
 21 H     0.02545   -0.11128   -0.06108
 22 H    -0.04364   -0.17114   -0.03087
 23 H    -0.06131   -0.03540   -0.17583
 24 H     0.00560    0.03620   -0.07021
 25 H    -0.14690    0.04130    0.00700
 26 H    -0.04949   -0.00069    0.28336
 27 H    -0.08234   -0.04949    0.18351
 28 H     0.09185    0.10380    0.12048
 29 H    -0.02063   -0.00349    0.04407
 30 H     0.04441    0.12502   -0.07080
 31 H     0.12728   -0.14372   -0.23539
 32 H     0.16842    0.28749   -0.18882
 33 H     0.32781    0.23178   -0.23196
 34 H     0.16132   -0.32729   -0.40286
 35 H     0.02882    0.16633    0.01737
 36 O    -0.09651   -0.13203   -0.41678
 37 O     0.07769   -0.36498    0.00386
 38 O    -0.35157   -0.10299    0.56928
 39 F     0.21162    0.11736   -0.01316
 40 N     0.00998   -0.10197    0.15237
 41 N    -0.16659   -0.03070    0.03276
 42 O     0.15592    0.25673   -0.30278
 43 O    -0.03104   -0.18070    0.21172
 44 C     0.17481   -0.07071    0.46297
 45 C    -0.10260    0.05398    0.00538
 46 C    -0.33693   -0.13166    0.23445
 47 C    -0.07389   -0.04852   -0.08743
 48 C     0.12757   -0.14175   -0.06596
 49 C    -0.16590    0.13178    0.02731
 50 C    -0.11149    0.21137    0.14241
 51 C     0.08301   -0.18773    0.00247
 52 C    -0.00347   -0.14151    0.08509
 53 C     0.19635   -0.10710    0.01014
 54 C    -0.11481    0.03078    0.00743
 55 C    -0.02269   -0.03067   -0.03059
 56 C    -0.11539    0.12658   -0.06484
 57 C     0.05902    0.14823    0.07895
 58 C    -0.23971    0.12656   -0.00731
 59 C    -0.12898   -0.10570   -0.11084
 60 C    -0.14456   -0.17565    0.06610
 61 C    -0.12835   -0.08933    0.00177
 62 C     0.31514    0.03177   -0.15097
 63 C     0.00610    0.11825    0.17491
 64 C     0.00526   -0.01120    0.21387
 65 C     0.10612   -0.05277    0.06580
 66 C    -0.02777   -0.25794   -0.02605
 67 N    -0.13954    0.05190    0.00816
 68 N    -0.25653    0.38190   -0.21994
 69 N     0.04001   -0.08446   -0.23074
 70 C     0.17690    0.24866    0.12476
 71 C    -0.05381   -0.09054   -0.13534
 72 C    -0.05769   -0.03475    0.05730
 73 C     0.00664   -0.13839    0.03216
 74 C    -0.17203   -0.10611   -0.16223
 75 C     0.17201   -0.04436   -0.01479
 76 C     0.04199   -0.01353    0.03532
 77 C     0.06515    0.06577   -0.13630
 78 C    -0.14315    0.09167   -0.02316
 79 C    -0.11567   -0.14386    0.02669
 80 C    -0.24939   -0.12012   -0.15013
 81 C    -0.10121   -0.14607    0.07233

System changes: positions 

Initializing position-dependent things.

Density initialized from wave functions
           .----------------------------------------------------------------------------.  
          /|                                                                            |  
         / |                                                                            |  
        /  |                                                                            |  
       /   |                                                                            |  
      /    |                                                                            |  
     /     |                                                                            |  
    /      |                                                                            |  
   /       |                                                                            |  
  /        |                                                                            |  
 *         |                                                                            |  
 |         |                                 H H H                                      |  
 |         |       H          H   H            C  H                                     |  
 |         |      F  C          C H       H                                             |  
 |         |         C  N      N      H   HN CC   H   H                                 |  
 |         |           C  C C    C  C         H  C N  C C  CH      H     O              |  
 |         |           H C           C   C        O     N  C C  C  C  C    H            |  
 |         |               HC  C          O              H   O  H      O                |  
 |         |         HHCCH      C  C                       C H                          |  
 |         |                  H     H                                                   |  
 |         |            C                              H C                              |  
 |         .-------H--C-H--H----------------------------H--H----------------------------.  
 |        /                                                                            /   
 |       /            H                                                               /    
 |      /                                                                            /     
 |     /                                                                            /      
 |    /                                                                            /       
 |   /                                                                            /        
 |  /                                                                            /         
 | /                                                                            /          
 |/                                                                            /           
 *----------------------------------------------------------------------------*            

Positions:
   0 H     27.215710   10.649924    7.063822    ( 0.0000,  0.0000,  0.0000)
   1 H     24.128094    9.855357    8.362185    ( 0.0000,  0.0000,  0.0000)
   2 H     23.011899   10.653208    5.581331    ( 0.0000,  0.0000,  0.0000)
   3 H      4.888633   10.270245   10.098302    ( 0.0000,  0.0000,  0.0000)
   4 H      7.855487   10.805774    6.214599    ( 0.0000,  0.0000,  0.0000)
   5 H     18.731732   11.251597    8.219618    ( 0.0000,  0.0000,  0.0000)
   6 H      5.711249   12.111019    6.278379    ( 0.0000,  0.0000,  0.0000)
   7 H     20.923801   11.928467    7.283000    ( 0.0000,  0.0000,  0.0000)
   8 H     12.878975    5.392047    7.059883    ( 0.0000,  0.0000,  0.0000)
   9 H     10.487311    5.547185    6.506185    ( 0.0000,  0.0000,  0.0000)
  10 H     12.672908    9.114855    9.260899    ( 0.0000,  0.0000,  0.0000)
  11 H     17.441776    9.511296    9.130162    ( 0.0000,  0.0000,  0.0000)
  12 H     14.487768    8.482520    9.906938    ( 0.0000,  0.0000,  0.0000)
  13 H      9.170369   10.844220    9.960900    ( 0.0000,  0.0000,  0.0000)
  14 H     10.574058   11.306742    8.918937    ( 0.0000,  0.0000,  0.0000)
  15 H     10.787877   10.210539   10.339282    ( 0.0000,  0.0000,  0.0000)
  16 H     20.375857    6.431888    5.610469    ( 0.0000,  0.0000,  0.0000)
  17 H     20.958126    4.768444    5.910370    ( 0.0000,  0.0000,  0.0000)
  18 H     22.009600    5.955571    5.080369    ( 0.0000,  0.0000,  0.0000)
  19 H     21.131218    6.077802    8.040767    ( 0.0000,  0.0000,  0.0000)
  20 H     22.744499    5.644097    7.429336    ( 0.0000,  0.0000,  0.0000)
  21 H      8.118114    4.140136    5.795027    ( 0.0000,  0.0000,  0.0000)
  22 H      6.408585    3.986324    6.267882    ( 0.0000,  0.0000,  0.0000)
  23 H      7.017099    5.311025    3.980471    ( 0.0000,  0.0000,  0.0000)
  24 H      5.813330    6.022512    5.091696    ( 0.0000,  0.0000,  0.0000)
  25 H     18.199362    6.550963   11.769504    ( 0.0000,  0.0000,  0.0000)
  26 H     16.864887    6.423717   12.955416    ( 0.0000,  0.0000,  0.0000)
  27 H      6.700524    5.521220    8.059900    ( 0.0000,  0.0000,  0.0000)
  28 H      8.422947    5.171472    7.852881    ( 0.0000,  0.0000,  0.0000)
  29 H      8.813989    6.699004    4.967292    ( 0.0000,  0.0000,  0.0000)
  30 H      7.449951    7.833396    4.804688    ( 0.0000,  0.0000,  0.0000)
  31 H     15.720735    8.389814   11.903946    ( 0.0000,  0.0000,  0.0000)
  32 H     17.376523    8.887228   11.441077    ( 0.0000,  0.0000,  0.0000)
  33 H     15.280180    5.781466   11.128523    ( 0.0000,  0.0000,  0.0000)
  34 H     16.744269    5.141322   10.314047    ( 0.0000,  0.0000,  0.0000)
  35 H      6.750433    7.529381    7.058311    ( 0.0000,  0.0000,  0.0000)
  36 O     25.583489   10.799189    5.519172    ( 0.0000,  0.0000,  0.0000)
  37 O     14.988441    6.043784    7.926077    ( 0.0000,  0.0000,  0.0000)
  38 O     18.074054    6.473223    8.458778    ( 0.0000,  0.0000,  0.0000)
  39 F      3.994448   11.967927    8.269764    ( 0.0000,  0.0000,  0.0000)
  40 N      6.685470    9.713829    9.214144    ( 0.0000,  0.0000,  0.0000)
  41 N     20.137539    8.178095    7.871086    ( 0.0000,  0.0000,  0.0000)
  42 O     26.413595   10.488492    7.617959    ( 0.0000,  0.0000,  0.0000)
  43 O     22.273239    7.616766    7.181561    ( 0.0000,  0.0000,  0.0000)
  44 C     25.396663   10.533406    6.704811    ( 0.0000,  0.0000,  0.0000)
  45 C     14.393379    6.972534    8.487449    ( 0.0000,  0.0000,  0.0000)
  46 C     17.540162    7.447160    8.974059    ( 0.0000,  0.0000,  0.0000)
  47 C     24.113830   10.204835    7.324338    ( 0.0000,  0.0000,  0.0000)
  48 C     22.977128   10.294624    6.619823    ( 0.0000,  0.0000,  0.0000)
  49 C      5.538826   10.423034    9.233848    ( 0.0000,  0.0000,  0.0000)
  50 C     21.331722    8.566090    7.412634    ( 0.0000,  0.0000,  0.0000)
  51 C      7.492654    9.863923    8.139508    ( 0.0000,  0.0000,  0.0000)
  52 C     19.237677    9.131028    8.158395    ( 0.0000,  0.0000,  0.0000)
  53 C      7.184205   10.725703    7.073782    ( 0.0000,  0.0000,  0.0000)
  54 C     19.476499   10.498187    7.968027    ( 0.0000,  0.0000,  0.0000)
  55 C      5.995824   11.455632    7.100973    ( 0.0000,  0.0000,  0.0000)
  56 C     20.710038   10.873106    7.447566    ( 0.0000,  0.0000,  0.0000)
  57 C     12.294156    6.243436    7.419872    ( 0.0000,  0.0000,  0.0000)
  58 C      5.170631   11.289212    8.205702    ( 0.0000,  0.0000,  0.0000)
  59 C     12.936105    7.228865    8.204424    ( 0.0000,  0.0000,  0.0000)
  60 C     21.675515    9.912154    7.163946    ( 0.0000,  0.0000,  0.0000)
  61 C     10.944339    6.324355    7.112162    ( 0.0000,  0.0000,  0.0000)
  62 C      8.810327    7.779517    7.456183    ( 0.0000,  0.0000,  0.0000)
  63 C     12.200205    8.329876    8.671250    ( 0.0000,  0.0000,  0.0000)
  64 C      8.691027    9.000413    8.097066    ( 0.0000,  0.0000,  0.0000)
  65 C     10.182544    7.405972    7.582217    ( 0.0000,  0.0000,  0.0000)
  66 C     10.836780    8.405483    8.352447    ( 0.0000,  0.0000,  0.0000)
  67 N     17.999742    8.746592    8.730703    ( 0.0000,  0.0000,  0.0000)
  68 N     15.039188    7.772253    9.420359    ( 0.0000,  0.0000,  0.0000)
  69 N      9.897296    9.357134    8.676403    ( 0.0000,  0.0000,  0.0000)
  70 C     10.117962   10.503390    9.517043    ( 0.0000,  0.0000,  0.0000)
  71 C     21.257738    5.828281    5.873716    ( 0.0000,  0.0000,  0.0000)
  72 C     21.836841    6.228820    7.211033    ( 0.0000,  0.0000,  0.0000)
  73 C      7.219582    4.708054    6.090918    ( 0.0000,  0.0000,  0.0000)
  74 C      6.872130    5.717617    4.992508    ( 0.0000,  0.0000,  0.0000)
  75 C     17.117903    6.688611   11.917627    ( 0.0000,  0.0000,  0.0000)
  76 C      7.529650    5.552448    7.338964    ( 0.0000,  0.0000,  0.0000)
  77 C      7.777897    6.902348    5.294846    ( 0.0000,  0.0000,  0.0000)
  78 C     16.644822    8.061894   11.391256    ( 0.0000,  0.0000,  0.0000)
  79 C     16.306250    6.020156   10.797796    ( 0.0000,  0.0000,  0.0000)
  80 C      7.700293    7.019752    6.828957    ( 0.0000,  0.0000,  0.0000)
  81 C     16.308292    7.370186   10.014554    ( 0.0000,  0.0000,  0.0000)

Unit cell:
           periodic     x           y           z      points  spacing
  1. axis:    no    31.196000    0.000000    0.000000   144     0.2166
  2. axis:    no     0.000000   16.097900    0.000000    75     0.2146
  3. axis:    no     0.000000    0.000000   16.934000    80     0.2117

  Lengths:  31.196000  16.097900  16.934000
  Angles:   90.000000  90.000000  90.000000

Effective grid spacing dv^(1/3) = 0.2143

                     log10-error:    total        iterations:
           time      wfs    density  energy       poisson
iter:   1  06:38:57  -2.53         -504.012797           
iter:   2  06:40:13  -3.88  -2.44  -504.006886           
iter:   3  06:41:31  -3.20  -2.46  -503.981678           
iter:   4  06:42:45  -4.78  -2.82  -503.980488           
iter:   5  06:44:03  -4.56  -2.84  -503.980350           
iter:   6  06:45:19  -4.18  -2.91  -503.978666           
iter:   7  06:46:36  -5.33  -3.17  -503.978044           
iter:   8  06:47:53  -5.56  -3.45  -503.977994           
iter:   9  06:49:07  -6.68  -3.71  -503.977989           
iter:  10  06:50:22  -6.06  -3.72  -503.977999           
iter:  11  06:51:38  -7.33  -4.01  -503.977989           
iter:  12  06:52:55  -6.83  -4.09  -503.977984           
iter:  13  06:54:11  -7.22  -4.22  -503.977987           
iter:  14  06:55:28  -7.97  -4.35  -503.977985           

Converged after 14 iterations.

Dipole moment: (-1.223100, 1.204701, 0.801546) |e|*Ang

Energy contributions relative to reference atoms: (reference = -56743.579694)

Kinetic:       +378.048188
Potential:     -401.697710
External:        +0.000000
XC:            -479.953084
Entropy (-ST):   +0.000000
Local:           -0.375380
--------------------------
Free energy:   -503.977985
Extrapolated:  -503.977985

 Band  Eigenvalues  Occupancy
    0    -30.91625    2.00000
    1    -27.13809    2.00000
    2    -26.51588    2.00000
    3    -25.65765    2.00000
    4    -25.27024    2.00000
    5    -24.88913    2.00000
    6    -24.77110    2.00000
    7    -23.85434    2.00000
    8    -23.81757    2.00000
    9    -22.91104    2.00000
   10    -22.42816    2.00000
   11    -20.86237    2.00000
   12    -20.62273    2.00000
   13    -20.45448    2.00000
   14    -20.27876    2.00000
   15    -20.25194    2.00000
   16    -19.79456    2.00000
   17    -19.23627    2.00000
   18    -19.16778    2.00000
   19    -18.57583    2.00000
   20    -18.18956    2.00000
   21    -17.89616    2.00000
   22    -17.80647    2.00000
   23    -17.50354    2.00000
   24    -16.99494    2.00000
   25    -16.78438    2.00000
   26    -16.39283    2.00000
   27    -16.23435    2.00000
   28    -16.05940    2.00000
   29    -16.02637    2.00000
   30    -15.88142    2.00000
   31    -15.72077    2.00000
   32    -15.09160    2.00000
   33    -14.81062    2.00000
   34    -14.60571    2.00000
   35    -14.49793    2.00000
   36    -14.18411    2.00000
   37    -13.98232    2.00000
   38    -13.66552    2.00000
   39    -13.52949    2.00000
   40    -13.42569    2.00000
   41    -13.37346    2.00000
   42    -13.17888    2.00000
   43    -13.08455    2.00000
   44    -12.88662    2.00000
   45    -12.71386    2.00000
   46    -12.63095    2.00000
   47    -12.44323    2.00000
   48    -12.18907    2.00000
   49    -11.93360    2.00000
   50    -11.91051    2.00000
   51    -11.69287    2.00000
   52    -11.64198    2.00000
   53    -11.36849    2.00000
   54    -11.33129    2.00000
   55    -11.31804    2.00000
   56    -11.22561    2.00000
   57    -11.17903    2.00000
   58    -11.13242    2.00000
   59    -10.97549    2.00000
   60    -10.84843    2.00000
   61    -10.76809    2.00000
   62    -10.69916    2.00000
   63    -10.52477    2.00000
   64    -10.30509    2.00000
   65    -10.26168    2.00000
   66    -10.22528    2.00000
   67    -10.21918    2.00000
   68    -10.14529    2.00000
   69     -9.92438    2.00000
   70     -9.82436    2.00000
   71     -9.69544    2.00000
   72     -9.64386    2.00000
   73     -9.60027    2.00000
   74     -9.57276    2.00000
   75     -9.48092    2.00000
   76     -9.42857    2.00000
   77     -9.40697    2.00000
   78     -9.31574    2.00000
   79     -9.28882    2.00000
   80     -9.28129    2.00000
   81     -9.13003    2.00000
   82     -9.05805    2.00000
   83     -8.93738    2.00000
   84     -8.79955    2.00000
   85     -8.65125    2.00000
   86     -8.48281    2.00000
   87     -8.36905    2.00000
   88     -8.29767    2.00000
   89     -8.16391    2.00000
   90     -8.05685    2.00000
   91     -7.90004    2.00000
   92     -7.84523    2.00000
   93     -7.66019    2.00000
   94     -7.62945    2.00000
   95     -7.59628    2.00000
   96     -7.52698    2.00000
   97     -7.50468    2.00000
   98     -7.35117    2.00000
   99     -7.31239    2.00000
  100     -7.30075    2.00000
  101     -7.19649    2.00000
  102     -7.15426    2.00000
  103     -7.06806    2.00000
  104     -6.90475    2.00000
  105     -6.89117    2.00000
  106     -6.42229    2.00000
  107     -6.39166    2.00000
  108     -6.24027    2.00000
  109     -6.15006    2.00000
  110     -6.09412    2.00000
  111     -5.95602    2.00000
  112     -5.79359    2.00000
  113     -5.68089    2.00000
  114     -5.17042    2.00000
  115     -5.06732    2.00000
  116     -4.80189    2.00000
  117     -4.76882    2.00000
  118     -4.49866    2.00000
  119     -1.99434    0.00000
  120     -1.96767    0.00000
  121     -1.55498    0.00000
  122     -1.47806    0.00000
  123     -1.20121    0.00000
  124     -0.77379    0.00000
  125     -0.68704    0.00000
  126     -0.46702    0.00000
  127     -0.36836    0.00000
  128     -0.12605    0.00000
  129     -0.06171    0.00000
  130      0.03804    0.00000
  131      0.05556    0.00000
  132      0.13630    0.00000
  133      0.15911    0.00000
  134      0.20183    0.00000
  135      0.32065    0.00000
  136      0.39095    0.00000
  137      0.41291    0.00000
  138      0.43380    0.00000
  139      0.49333    0.00000
  140      0.50664    0.00000
  141      0.53345    0.00000
  142      0.60190    0.00000
  143      0.61834    0.00000
  144      0.68911    0.00000
  145      0.71558    0.00000
  146      0.76549    0.00000

Fermi level: -3.24650

Gap: 2.504 eV
Transition (v -> c):
  (s=0, k=0, n=118, [0.00, 0.00, 0.00]) -> (s=0, k=0, n=119, [0.00, 0.00, 0.00])

Forces in eV/Ang:
  0 H     0.24416    0.10012    0.03204
  1 H    -0.05052    0.02551   -0.04463
  2 H     0.13910    0.07664    0.04313
  3 H    -0.10453    0.06436    0.08215
  4 H     0.04594   -0.01807    0.02021
  5 H    -0.16046    0.07045    0.02816
  6 H    -0.06413    0.11564   -0.04350
  7 H     0.08888    0.13639   -0.06554
  8 H     0.09245    0.12470    0.05953
  9 H    -0.11452   -0.19202   -0.13255
 10 H     0.03624    0.17552    0.08103
 11 H     0.00891    0.10045   -0.00491
 12 H    -0.09991    0.10659    0.27271
 13 H     0.04032   -0.00433   -0.11848
 14 H     0.07826    0.28550    0.20574
 15 H     0.07725    0.13307    0.03348
 16 H    -0.05677   -0.04642    0.10211
 17 H    -0.03974   -0.00536   -0.06261
 18 H     0.03365   -0.04358   -0.05043
 19 H    -0.11492    0.06026   -0.06999
 20 H     0.12356    0.17145   -0.02172
 21 H    -0.02410   -0.08117   -0.02969
 22 H     0.02026   -0.11945   -0.03219
 23 H    -0.08297   -0.02047   -0.07825
 24 H     0.01770    0.00556   -0.07767
 25 H     0.02663    0.01182    0.01540
 26 H     0.01940    0.05894   -0.00949
 27 H    -0.00556   -0.05230    0.11465
 28 H     0.05128    0.10854    0.09371
 29 H    -0.03137   -0.00083    0.02923
[...]
   4 H      7.950149   10.770303    6.260276    ( 0.0000,  0.0000,  0.0000)
   5 H     18.425282   11.061076    7.714596    ( 0.0000,  0.0000,  0.0000)
   6 H      5.810356   12.130582    6.280222    ( 0.0000,  0.0000,  0.0000)
   7 H     20.672665   11.874922    7.013893    ( 0.0000,  0.0000,  0.0000)
   8 H     12.908658    5.362697    7.068713    ( 0.0000,  0.0000,  0.0000)
   9 H     10.471572    5.494914    6.573049    ( 0.0000,  0.0000,  0.0000)
  10 H     12.786903    9.136848    9.165801    ( 0.0000,  0.0000,  0.0000)
  11 H     17.201484    9.262366    8.647442    ( 0.0000,  0.0000,  0.0000)
  12 H     14.528623    8.276008    9.949772    ( 0.0000,  0.0000,  0.0000)
  13 H      9.355952   11.073342    9.722057    ( 0.0000,  0.0000,  0.0000)
  14 H     10.914400   11.292307    8.866753    ( 0.0000,  0.0000,  0.0000)
  15 H     10.831830   10.307102   10.360061    ( 0.0000,  0.0000,  0.0000)
  16 H     20.281129    6.262149    5.879245    ( 0.0000,  0.0000,  0.0000)
  17 H     21.155444    4.719396    6.002893    ( 0.0000,  0.0000,  0.0000)
  18 H     21.890339    6.072351    5.101118    ( 0.0000,  0.0000,  0.0000)
  19 H     21.307930    6.089040    8.134077    ( 0.0000,  0.0000,  0.0000)
  20 H     22.923916    5.776207    7.405912    ( 0.0000,  0.0000,  0.0000)
  21 H      8.086409    4.134079    5.833560    ( 0.0000,  0.0000,  0.0000)
  22 H      6.363469    4.048584    6.229362    ( 0.0000,  0.0000,  0.0000)
  23 H      7.112388    5.321847    3.941092    ( 0.0000,  0.0000,  0.0000)
  24 H      5.900532    6.108657    4.976765    ( 0.0000,  0.0000,  0.0000)
  25 H     18.174668    6.405733   11.760227    ( 0.0000,  0.0000,  0.0000)
  26 H     16.777486    6.411189   12.873880    ( 0.0000,  0.0000,  0.0000)
  27 H      6.643795    5.612374    8.034487    ( 0.0000,  0.0000,  0.0000)
  28 H      8.360172    5.241557    7.889460    ( 0.0000,  0.0000,  0.0000)
  29 H      8.935706    6.623560    5.025925    ( 0.0000,  0.0000,  0.0000)
  30 H      7.671599    7.835126    4.730276    ( 0.0000,  0.0000,  0.0000)
  31 H     15.821197    8.405155   11.715543    ( 0.0000,  0.0000,  0.0000)
  32 H     17.495927    8.768939   11.198122    ( 0.0000,  0.0000,  0.0000)
  33 H     15.269009    5.683255   10.984809    ( 0.0000,  0.0000,  0.0000)
  34 H     16.762595    5.062866   10.193220    ( 0.0000,  0.0000,  0.0000)
  35 H      6.813827    7.648534    6.973604    ( 0.0000,  0.0000,  0.0000)
  36 O     25.571803   10.774854    5.500551    ( 0.0000,  0.0000,  0.0000)
  37 O     15.033806    6.014911    7.826452    ( 0.0000,  0.0000,  0.0000)
  38 O     18.229986    6.252396    8.707189    ( 0.0000,  0.0000,  0.0000)
  39 F      4.099019   12.031767    8.264154    ( 0.0000,  0.0000,  0.0000)
  40 N      6.783516    9.853797    9.312967    ( 0.0000,  0.0000,  0.0000)
  41 N     20.134369    8.131849    7.823000    ( 0.0000,  0.0000,  0.0000)
  42 O     26.396958   10.502167    7.597367    ( 0.0000,  0.0000,  0.0000)
  43 O     22.305583    7.680856    7.210864    ( 0.0000,  0.0000,  0.0000)
  44 C     25.391795   10.450208    6.670872    ( 0.0000,  0.0000,  0.0000)
  45 C     14.443619    6.942194    8.394965    ( 0.0000,  0.0000,  0.0000)
  46 C     17.577768    7.261301    8.936021    ( 0.0000,  0.0000,  0.0000)
  47 C     24.129374    9.946311    7.222612    ( 0.0000,  0.0000,  0.0000)
  48 C     22.945462   10.411818    6.767589    ( 0.0000,  0.0000,  0.0000)
  49 C      5.652206   10.580432    9.309983    ( 0.0000,  0.0000,  0.0000)
  50 C     21.323615    8.581227    7.421646    ( 0.0000,  0.0000,  0.0000)
  51 C      7.569239    9.914857    8.210335    ( 0.0000,  0.0000,  0.0000)
  52 C     19.127950    9.005989    7.958380    ( 0.0000,  0.0000,  0.0000)
  53 C      7.268472   10.736577    7.114331    ( 0.0000,  0.0000,  0.0000)
  54 C     19.268798   10.368504    7.639386    ( 0.0000,  0.0000,  0.0000)
  55 C      6.095845   11.487412    7.115969    ( 0.0000,  0.0000,  0.0000)
  56 C     20.525260   10.814678    7.243727    ( 0.0000,  0.0000,  0.0000)
  57 C     12.312413    6.208298    7.419533    ( 0.0000,  0.0000,  0.0000)
  58 C      5.276967   11.371666    8.228264    ( 0.0000,  0.0000,  0.0000)
  59 C     12.989430    7.208066    8.158924    ( 0.0000,  0.0000,  0.0000)
  60 C     21.624795    9.946218    7.160303    ( 0.0000,  0.0000,  0.0000)
  61 C     10.958541    6.289706    7.146269    ( 0.0000,  0.0000,  0.0000)
  62 C      8.856621    7.809947    7.485565    ( 0.0000,  0.0000,  0.0000)
  63 C     12.284594    8.327944    8.625631    ( 0.0000,  0.0000,  0.0000)
  64 C      8.758395    9.030293    8.141206    ( 0.0000,  0.0000,  0.0000)
  65 C     10.226115    7.401850    7.605007    ( 0.0000,  0.0000,  0.0000)
  66 C     10.914342    8.409637    8.345394    ( 0.0000,  0.0000,  0.0000)
  67 N     17.910448    8.535435    8.469827    ( 0.0000,  0.0000,  0.0000)
  68 N     15.128775    7.755083    9.291094    ( 0.0000,  0.0000,  0.0000)
  69 N      9.995489    9.395005    8.667803    ( 0.0000,  0.0000,  0.0000)
  70 C     10.293716   10.579444    9.437516    ( 0.0000,  0.0000,  0.0000)
  71 C     21.280360    5.814186    5.981383    ( 0.0000,  0.0000,  0.0000)
  72 C     21.952058    6.274125    7.260947    ( 0.0000,  0.0000,  0.0000)
  73 C      7.201577    4.748379    6.079691    ( 0.0000,  0.0000,  0.0000)
  74 C      6.946722    5.751496    4.942845    ( 0.0000,  0.0000,  0.0000)
  75 C     17.096193    6.605852   11.839355    ( 0.0000,  0.0000,  0.0000)
  76 C      7.489993    5.616684    7.329095    ( 0.0000,  0.0000,  0.0000)
  77 C      7.896111    6.903083    5.275258    ( 0.0000,  0.0000,  0.0000)
  78 C     16.723983    7.983343   11.237871    ( 0.0000,  0.0000,  0.0000)
  79 C     16.304534    5.921741   10.698494    ( 0.0000,  0.0000,  0.0000)
  80 C      7.741934    7.072299    6.806141    ( 0.0000,  0.0000,  0.0000)
  81 C     16.354926    7.259340    9.906400    ( 0.0000,  0.0000,  0.0000)

Unit cell:
           periodic     x           y           z      points  spacing
  1. axis:    no    31.196000    0.000000    0.000000   144     0.2166
  2. axis:    no     0.000000   16.097900    0.000000    75     0.2146
  3. axis:    no     0.000000    0.000000   16.934000    80     0.2117

  Lengths:  31.196000  16.097900  16.934000
  Angles:   90.000000  90.000000  90.000000

Effective grid spacing dv^(1/3) = 0.2143

                     log10-error:    total        iterations:
           time      wfs    density  energy       poisson
iter:   1  22:31:06  -4.15         -504.485199           
iter:   2  22:32:21  -5.51  -3.26  -504.485076           
iter:   3  22:33:36  -5.13  -3.28  -504.484589           
iter:   4  22:34:51  -6.62  -3.60  -504.484577           
iter:   5  22:36:05  -6.19  -3.61  -504.484525           
iter:   6  22:37:20  -6.22  -3.87  -504.484518           
iter:   7  22:38:36  -6.80  -4.00  -504.484508           
iter:   8  22:39:52  -7.34  -4.24  -504.484506           
iter:   9  22:41:09  -7.66  -4.50  -504.484506           

Converged after 9 iterations.

Dipole moment: (-1.554760, 1.128189, 0.690617) |e|*Ang

Energy contributions relative to reference atoms: (reference = -56743.579694)

Kinetic:       +374.398401
Potential:     -399.145948
External:        +0.000000
XC:            -479.253598
Entropy (-ST):   +0.000000
Local:           -0.483360
--------------------------
Free energy:   -504.484506
Extrapolated:  -504.484506

 Band  Eigenvalues  Occupancy
    0    -31.04395    2.00000
    1    -26.96412    2.00000
    2    -26.65996    2.00000
    3    -25.79802    2.00000
    4    -25.48531    2.00000
    5    -24.85471    2.00000
    6    -24.61732    2.00000
    7    -23.97090    2.00000
    8    -23.89219    2.00000
    9    -23.05369    2.00000
   10    -22.50519    2.00000
   11    -20.93356    2.00000
   12    -20.62833    2.00000
   13    -20.46897    2.00000
   14    -20.29749    2.00000
   15    -20.15435    2.00000
   16    -19.82481    2.00000
   17    -19.28911    2.00000
   18    -19.10382    2.00000
   19    -18.52974    2.00000
   20    -18.27659    2.00000
   21    -17.97360    2.00000
   22    -17.84446    2.00000
   23    -17.55501    2.00000
   24    -16.99289    2.00000
   25    -16.87594    2.00000
   26    -16.46614    2.00000
   27    -16.24142    2.00000
   28    -16.10698    2.00000
   29    -16.06416    2.00000
   30    -15.92547    2.00000
   31    -15.75784    2.00000
   32    -15.07909    2.00000
   33    -14.87937    2.00000
   34    -14.68686    2.00000
   35    -14.54738    2.00000
   36    -14.24419    2.00000
   37    -14.03721    2.00000
   38    -13.68844    2.00000
   39    -13.59396    2.00000
   40    -13.49634    2.00000
   41    -13.42655    2.00000
   42    -13.22508    2.00000
   43    -13.09549    2.00000
   44    -12.85759    2.00000
   45    -12.76101    2.00000
   46    -12.67824    2.00000
   47    -12.48627    2.00000
   48    -12.12505    2.00000
   49    -11.97572    2.00000
   50    -11.77746    2.00000
   51    -11.71611    2.00000
   52    -11.62450    2.00000
   53    -11.42865    2.00000
   54    -11.35173    2.00000
   55    -11.28736    2.00000
   56    -11.27484    2.00000
   57    -11.17524    2.00000
   58    -11.03156    2.00000
   59    -11.02571    2.00000
   60    -10.89493    2.00000
   61    -10.81690    2.00000
   62    -10.74773    2.00000
   63    -10.63635    2.00000
   64    -10.39794    2.00000
   65    -10.30026    2.00000
   66    -10.25883    2.00000
   67    -10.20428    2.00000
   68    -10.04095    2.00000
   69     -9.99972    2.00000
   70     -9.94981    2.00000
   71     -9.82675    2.00000
   72     -9.67855    2.00000
   73     -9.60533    2.00000
   74     -9.53402    2.00000
   75     -9.50507    2.00000
   76     -9.47899    2.00000
   77     -9.36679    2.00000
   78     -9.33787    2.00000
   79     -9.29868    2.00000
   80     -9.21745    2.00000
   81     -9.16235    2.00000
   82     -9.03157    2.00000
   83     -8.96606    2.00000
   84     -8.84589    2.00000
   85     -8.65600    2.00000
   86     -8.44684    2.00000
   87     -8.38813    2.00000
   88     -8.36603    2.00000
   89     -8.16108    2.00000
   90     -8.14459    2.00000
   91     -7.97006    2.00000
   92     -7.87946    2.00000
   93     -7.73685    2.00000
   94     -7.69026    2.00000
   95     -7.65327    2.00000
   96     -7.63544    2.00000
   97     -7.54315    2.00000
   98     -7.45175    2.00000
   99     -7.43856    2.00000
  100     -7.34619    2.00000
  101     -7.23806    2.00000
  102     -7.17551    2.00000
  103     -7.08375    2.00000
  104     -6.94476    2.00000
  105     -6.85060    2.00000
  106     -6.42312    2.00000
  107     -6.39626    2.00000
  108     -6.36702    2.00000
  109     -6.15751    2.00000
  110     -6.14274    2.00000
  111     -5.97958    2.00000
  112     -5.86036    2.00000
  113     -5.57611    2.00000
  114     -5.32225    2.00000
  115     -5.21984    2.00000
  116     -4.98669    2.00000
  117     -4.67781    2.00000
  118     -4.63313    2.00000
  119     -2.01974    0.00000
  120     -1.96322    0.00000
  121     -1.72896    0.00000
  122     -1.52357    0.00000
  123     -0.97785    0.00000
  124     -0.72777    0.00000
  125     -0.69588    0.00000
  126     -0.59829    0.00000
  127     -0.38591    0.00000
  128     -0.09831    0.00000
  129     -0.02407    0.00000
  130      0.02127    0.00000
  131      0.03552    0.00000
  132      0.11717    0.00000
  133      0.17507    0.00000
  134      0.19374    0.00000
  135      0.31261    0.00000
  136      0.31575    0.00000
  137      0.38755    0.00000
  138      0.43790    0.00000
  139      0.46733    0.00000
  140      0.47246    0.00000
  141      0.50877    0.00000
  142      0.58329    0.00000
  143      0.63269    0.00000
  144      0.68825    0.00000
  145      0.70774    0.00000
  146      0.75356    0.00000

Fermi level: -3.32644

Gap: 2.613 eV
Transition (v -> c):
  (s=0, k=0, n=118, [0.00, 0.00, 0.00]) -> (s=0, k=0, n=119, [0.00, 0.00, 0.00])

Forces in eV/Ang:
  0 H     0.00003   -0.00243    0.00111
  1 H    -0.00229    0.00400    0.00723
  2 H     0.00711    0.01823   -0.01350
  3 H    -0.00598   -0.01617    0.00907
  4 H    -0.00435   -0.00004   -0.01964
  5 H     0.00125   -0.00791   -0.00237
  6 H    -0.00736    0.00243   -0.02029
  7 H    -0.00384   -0.00053   -0.01906
  8 H    -0.01295   -0.00685    0.00172
  9 H     0.00494    0.02261    0.01341
 10 H    -0.00751    0.01666    0.00898
 11 H     0.00577    0.00191   -0.00491
 12 H    -0.01163    0.00703    0.00696
 13 H    -0.01685    0.01760    0.00316
 14 H     0.00440    0.00260   -0.01815
 15 H    -0.00436    0.00050    0.02379
 16 H     0.00367    0.00826   -0.01074
 17 H     0.00277   -0.01560    0.01756
 18 H    -0.00106    0.00401   -0.00008
 19 H    -0.00147   -0.00202    0.00241
 20 H    -0.01354    0.00757   -0.00209
 21 H    -0.01366    0.00854   -0.00110
 22 H     0.00352    0.01169    0.00516
 23 H     0.00055    0.00311    0.00844
 24 H     0.01210   -0.00678   -0.00251
 25 H     0.01540   -0.00550    0.00567
 26 H    -0.01298    0.00647   -0.01689
 27 H    -0.00854    0.00635   -0.00464
 28 H     0.00396    0.00573   -0.00065
 29 H    -0.01318    0.00381    0.00394
 30 H    -0.00222    0.00218    0.00198
 31 H    -0.00188   -0.01531   -0.01432
 32 H    -0.00405   -0.02259    0.00036
 33 H    -0.01636    0.00703    0.00531
 34 H    -0.00505   -0.02033    0.01451
 35 H     0.00124   -0.00279   -0.00670
 36 O     0.00019   -0.00327    0.00388
 37 O     0.01605   -0.01122    0.01027
 38 O    -0.00559   -0.02929   -0.02259
 39 F     0.01844    0.02256   -0.00117
 40 N     0.00244    0.00160    0.00976
 41 N    -0.01545   -0.00453    0.00218
 42 O     0.00558    0.01224    0.00936
 43 O     0.00769    0.00958    0.01450
 44 C    -0.00360   -0.01428   -0.00579
 45 C     0.00915    0.00079   -0.01590
 46 C     0.00522    0.00565    0.00103
 47 C    -0.01630    0.00098   -0.01499
 48 C    -0.03784   -0.00001    0.01264
 49 C    -0.00387   -0.00143    0.00972
 50 C    -0.01775   -0.01287   -0.00160
 51 C     0.00760   -0.01310    0.00777
 52 C    -0.00445    0.01234    0.01245
 53 C     0.00693    0.00147    0.00021
 54 C    -0.01160   -0.00364    0.00466
 55 C    -0.02494   -0.01569   -0.02391
 56 C    -0.01405    0.00353   -0.00860
 57 C    -0.01221    0.00200   -0.01887
 58 C     0.01286    0.01153    0.01089
 59 C    -0.02281    0.01030   -0.01041
 60 C    -0.02751   -0.01826    0.02844
 61 C    -0.00754    0.00168    0.01171
 62 C     0.00798   -0.02797    0.01025
 63 C    -0.02194    0.00387    0.01262
 64 C     0.01984   -0.01164    0.00009
 65 C     0.00130   -0.01466   -0.00774
 66 C     0.00463    0.00099   -0.01892
 67 N    -0.01498    0.02301    0.01229
 68 N     0.00219   -0.01129    0.01038
 69 N     0.01367   -0.00058    0.00835
 70 C     0.00364    0.01412    0.01137
 71 C     0.00184   -0.00389    0.00826
 72 C    -0.00014    0.01673    0.00456
 73 C    -0.00286    0.01400    0.00471
 74 C     0.00596    0.00056    0.00235
 75 C     0.01431    0.00251    0.00509
 76 C    -0.00050    0.01087    0.00407
 77 C    -0.01064   -0.00044   -0.00991
 78 C     0.01870   -0.02160    0.04039
 79 C     0.00073    0.00380   -0.00386
 80 C     0.00650    0.01065   -0.01258
 81 C     0.02994    0.02978    0.00284

Timing:                                      incl.     excl.
-------------------------------------------------------------------
Density initialized from wave functions:   565.700   565.693   0.9% |
 Symmetrize density:                         0.007     0.007   0.0% |
Forces:                                   3195.003  3195.003   5.1% |-|
Hamiltonian:                               384.654    14.241   0.0% |
 Atomic:                                     9.117     0.578   0.0% |
  XC Correction:                             8.539     8.539   0.0% |
 Calculate atomic Hamiltonians:            257.441   257.441   0.4% |
 Communicate:                               18.038    18.038   0.0% |
 Initialize Hamiltonian:                     0.004     0.004   0.0% |
 Poisson:                                    0.640     0.640   0.0% |
 XC 3D grid:                                85.173    85.173   0.1% |
LCAO initialization:                        11.248     1.060   0.0% |
 LCAO eigensolver:                           0.233     0.000   0.0% |
  Calculate projections:                     0.001     0.001   0.0% |
  DenseAtomicCorrection:                     0.000     0.000   0.0% |
  Distribute overlap matrix:                 0.196     0.196   0.0% |
  Orbital Layouts:                           0.024     0.024   0.0% |
  Potential matrix:                          0.012     0.012   0.0% |
 LCAO to grid:                               9.622     9.622   0.0% |
 Set positions (LCAO WFS):                   0.333     0.147   0.0% |
  Basic WFS set positions:                   0.005     0.005   0.0% |
  Basis functions set positions:             0.001     0.001   0.0% |
  P tci:                                     0.010     0.010   0.0% |
  ST tci:                                    0.020     0.020   0.0% |
  mktci:                                     0.149     0.149   0.0% |
PWDescriptor:                                0.495     0.495   0.0% |
Redistribute:                                0.172     0.172   0.0% |
SCF-cycle:                               57588.021     3.205   0.0% |
 Davidson:                               47216.570 22451.668  35.7% |-------------|
  Apply H:                                3412.390  3393.891   5.4% |-|
   HMM T:                                   18.499    18.499   0.0% |
  Subspace diag:                          5704.674     0.586   0.0% |
   calc_h_matrix:                         4035.701   769.916   1.2% |
    Apply H:                              3265.784  3247.194   5.2% |-|
     HMM T:                                 18.590    18.590   0.0% |
   diagonalize:                             20.785    20.785   0.0% |
   rotate_psi:                            1647.602  1647.602   2.6% ||
  calc. matrices:                        12373.360  5638.475   9.0% |---|
   Apply H:                               6734.885  6699.407  10.7% |---|
    HMM T:                                  35.478    35.478   0.1% |
  diagonalize:                              83.859    83.859   0.1% |
  rotate_psi:                             3190.618  3190.618   5.1% |-|
 Density:                                 5825.531     0.096   0.0% |
  Atomic density matrices:                  12.103    12.103   0.0% |
  Mix:                                    3670.620  3670.620   5.8% |-|
  Multipole moments:                         1.193     1.193   0.0% |
  Pseudo density:                         2141.520  2141.457   3.4% ||
   Symmetrize density:                       0.063     0.063   0.0% |
 Hamiltonian:                             4015.555   181.776   0.3% |
  Atomic:                                   95.910     5.593   0.0% |
   XC Correction:                           90.317    90.317   0.1% |
  Calculate atomic Hamiltonians:          2664.299  2664.299   4.2% |-|
  Communicate:                             167.436   167.436   0.3% |
  Poisson:                                   7.231     7.231   0.0% |
  XC 3D grid:                              898.902   898.902   1.4% ||
 Orthonormalize:                           527.160     0.055   0.0% |
  calc_s_matrix:                            27.348    27.348   0.0% |
  inverse-cholesky:                          1.547     1.547   0.0% |
  projections:                             471.320   471.320   0.7% |
  rotate_psi_s:                             26.890    26.890   0.0% |
Set symmetry:                                0.003     0.003   0.0% |
Other:                                    1114.777  1114.777   1.8% ||
-------------------------------------------------------------------
Total:                                             62860.072 100.0%

Memory usage: 1.37 GiB
Date: Wed Jul  7 22:51:14 2021
