
  ___ ___ ___ _ _ _  
 |   |   |_  | | | | 
 | | | | | . | | | | 
 |__ |  _|___|_____|  21.6.0
 |___|_|             

User:   hanguo02@comput101.ghddi.org
Date:   Wed Jun 30 10:15:32 2021
Arch:   x86_64
Pid:    79427
Python: 3.6.8
gpaw:   /home/hanguo02/.local/lib/python3.6/site-packages/gpaw
_gpaw:  /home/hanguo02/.local/lib/python3.6/site-packages/
        _gpaw.cpython-36m-x86_64-linux-gnu.so
ase:    /home/hanguo02/.local/lib/python3.6/site-packages/ase (version 3.22.0)
numpy:  /usr/lib64/python3.6/site-packages/numpy (version 1.16.2)
scipy:  /usr/lib64/python3.6/site-packages/scipy (version 1.2.1)
libxc:  4.2.0
units:  Angstrom and eV
cores: 1
OpenMP: False
OMP_NUM_THREADS: 1

Input parameters:
  mode: {ecut: 400.0,
         gammacentered: False,
         name: pw}
  xc: PBE

System changes: positions, numbers, cell, pbc, initial_charges, initial_magmoms 

Initialize ...

H-setup:
  name: Hydrogen
  id: d65de229564ff8ea4db303e23b6d1ecf
  Z: 1.0
  valence: 1
  core: 0
  charge: 0.0
  file: /home/hanguo02/Software/GPAW/gpaw-setups-0.9.20000/H.PBE.gz
  compensation charges: gauss, rc=0.15, lmax=2
  cutoffs: 0.85(filt), 0.53(core),
  valence states:
                energy  radius
    1s(1.00)    -6.494   0.476
    *s          20.717   0.476
    *p           0.000   0.476

  Using partial waves for H as LCAO basis

C-setup:
  name: Carbon
  id: 4aa54d4b901d75f77cc0ea3eec22967b
  Z: 6.0
  valence: 4
  core: 2
  charge: 0.0
  file: /home/hanguo02/Software/GPAW/gpaw-setups-0.9.20000/C.PBE.gz
  compensation charges: gauss, rc=0.20, lmax=2
  cutoffs: 1.14(filt), 1.14(core),
  valence states:
                energy  radius
    2s(2.00)   -13.751   0.635
    2p(2.00)    -5.284   0.635
    *s          13.461   0.635
    *p          21.927   0.635
    *d           0.000   0.635

  Using partial waves for C as LCAO basis

O-setup:
  name: Oxygen
  id: 32ecd46bf208036f09c70b0ec9a88b78
  Z: 8.0
  valence: 6
  core: 2
  charge: 0.0
  file: /home/hanguo02/Software/GPAW/gpaw-setups-0.9.20000/O.PBE.gz
  compensation charges: gauss, rc=0.21, lmax=2
  cutoffs: 1.17(filt), 0.83(core),
  valence states:
                energy  radius
    2s(2.00)   -23.961   0.688
    2p(4.00)    -9.029   0.598
    *s           3.251   0.688
    *p          18.182   0.598
    *d           0.000   0.619

  Using partial waves for O as LCAO basis

Reference energy: -4171.049506

Spin-paired calculation

Convergence criteria:
  Maximum total energy change: 0.0005 eV / electron
  Maximum integral of absolute density change: 0.0001 electrons
  Maximum integral of absolute eigenstate change: 4e-08 eV^2
  Maximum number of iterations: 333

Symmetries present (total): 1

  ( 1  0  0)
  ( 0  1  0)
  ( 0  0  1)

1 k-point (Gamma)
1 k-point in the irreducible part of the Brillouin zone
       k-points in crystal coordinates                weights
   0:     0.00000000    0.00000000    0.00000000          1/1

Wave functions: Plane wave expansion
  Cutoff energy: 400.000 eV
  Number of coefficients: 59063 (reduced to 29532)
  Pulay-stress correction: 0.000000 eV/Ang^3 (de/decut=0.000000)
  Using Numpy's FFT
  ScaLapack parameters: grid=1x1, blocksize=None
  Wavefunction extrapolation:
    Improved wavefunction reuse through dual PAW basis 

Occupation numbers: width=0.000 eV 

Eigensolver
   Davidson(niter=2) 

Densities:
  Coarse grid: 72*70*70 grid
  Fine grid: 144*140*140 grid
  Total Charge: 0.000000 

Density mixing:
  Method: separate
  Backend: pulay
  Linear mixing parameter: 0.05
  Mixing with 5 old densities
  Damping of long wave oscillations: 50 

Hamiltonian:
  XC and Coulomb potentials evaluated on a 144*140*140 grid
  Using the PBE Exchange-Correlation functional
 

XC parameters: PBE with 2 nearest neighbor stencil

Memory estimate:
  Process memory now: 203.48 MiB
  Calculator: 268.41 MiB
    Density: 191.15 MiB
      Arrays: 69.98 MiB
      Localized functions: 94.25 MiB
      Mixer: 26.92 MiB
    Hamiltonian: 48.31 MiB
      Arrays: 45.76 MiB
      XC: 0.00 MiB
      Poisson: 0.00 MiB
      vbar: 2.55 MiB
    Wavefunctions: 28.95 MiB
      Arrays psit_nG: 7.21 MiB
      Eigensolver: 9.48 MiB
      Projections: 0.01 MiB
      Projectors: 4.96 MiB
      PW-descriptor: 7.30 MiB

Total number of cores used: 1

Number of atoms: 9
Number of atomic orbitals: 18
Number of bands in calculation: 16
Number of valence electrons: 20
Bands to converge: occupied

... initialized

Initializing position-dependent things.

Density initialized from atomic densities
Creating initial wave functions:
  16 bands from LCAO basis set

          .-------------------------------------.  
         /|                                     |  
        / |                                     |  
       /  |                                     |  
      /   |                                     |  
     /    |                                     |  
    /     |                                     |  
   /      |                                     |  
  /       |                                     |  
 *        |                                     |  
 |        |                                     |  
 |        |                                     |  
 |        |         H  O                        |  
 |        |                  H                  |  
 |        |            HC  CH                   |  
 |        |           H     H                   |  
 |        |                                     |  
 |        |                                     |  
 |        .-------------------------------------.  
 |       /                                     /   
 |      /                                     /    
 |     /                                     /     
 |    /                                     /      
 |   /                                     /       
 |  /                                     /        
 | /                                     /         
 |/                                     /          
 *-------------------------------------*           

Positions:
   0 H      9.230400    6.937800    6.000000    ( 0.0000,  0.0000,  0.0000)
   1 H      9.451200    7.561800    7.652300    ( 0.0000,  0.0000,  0.0000)
   2 H      8.708800    8.584700    6.428800    ( 0.0000,  0.0000,  0.0000)
   3 H      6.742300    7.036600    6.310700    ( 0.0000,  0.0000,  0.0000)
   4 H      6.000000    7.484600    8.417300    ( 0.0000,  0.0000,  0.0000)
   5 C      7.417000    7.023500    7.172000    ( 0.0000,  0.0000,  0.0000)
   6 O      6.873100    7.848300    8.191600    ( 0.0000,  0.0000,  0.0000)
   7 C      8.781800    7.552100    6.785700    ( 0.0000,  0.0000,  0.0000)
   8 H      7.494700    6.000000    7.550700    ( 0.0000,  0.0000,  0.0000)

Unit cell:
           periodic     x           y           z      points  spacing
  1. axis:    no    15.451200    0.000000    0.000000    72     0.2146
  2. axis:    no     0.000000   14.584700    0.000000    70     0.2084
  3. axis:    no     0.000000    0.000000   14.417300    70     0.2060

  Lengths:  15.451200  14.584700  14.417300
  Angles:   90.000000  90.000000  90.000000

Effective grid spacing dv^(1/3) = 0.2096

                     log10-error:    total        iterations:
           time      wfs    density  energy       poisson
iter:   1  10:15:38                 -49.332697           
iter:   2  10:15:42  -1.04  -0.64   -48.627166           
iter:   3  10:15:46  -0.61  -0.67   -45.293874           
iter:   4  10:15:49  -2.17  -1.01   -45.295187           
iter:   5  10:15:53  -1.21  -1.02   -45.304313           
iter:   6  10:15:56  -1.13  -1.28   -44.982017           
iter:   7  10:16:00  -2.51  -1.66   -44.936837           
iter:   8  10:16:03  -2.58  -1.75   -44.923445           
iter:   9  10:16:07  -3.77  -2.31   -44.922490           
iter:  10  10:16:10  -3.05  -2.36   -44.923769           
iter:  11  10:16:14  -3.40  -2.42   -44.921989           
iter:  12  10:16:17  -4.59  -2.88   -44.921941           
iter:  13  10:16:21  -5.15  -2.94   -44.921921           
iter:  14  10:16:24  -5.16  -3.00   -44.921932           
iter:  15  10:16:27  -5.83  -3.05   -44.921915           
iter:  16  10:16:31  -5.03  -3.12   -44.921941           
iter:  17  10:16:34  -4.51  -3.20   -44.922012           
iter:  18  10:16:38  -5.03  -3.10   -44.921916           
iter:  19  10:16:41  -6.02  -3.45   -44.921917           
iter:  20  10:16:45  -5.72  -3.48   -44.921932           
iter:  21  10:16:48  -5.81  -3.54   -44.921920           
iter:  22  10:16:52  -6.39  -3.89   -44.921920           
iter:  23  10:16:55  -6.83  -3.91   -44.921920           
iter:  24  10:16:59  -7.21  -4.06   -44.921920           
iter:  25  10:17:02  -6.81  -4.09   -44.921920           
iter:  26  10:17:05  -6.75  -4.09   -44.921920           
iter:  27  10:17:09  -8.00  -4.77   -44.921920           

Converged after 27 iterations.

Dipole moment: (-0.129691, -0.250831, -0.130736) |e|*Ang

Energy contributions relative to reference atoms: (reference = -4171.049506)

Kinetic:        +36.642688
Potential:      -39.670700
External:        +0.000000
XC:             -41.796108
Entropy (-ST):   +0.000000
Local:           -0.097799
--------------------------
Free energy:    -44.921920
Extrapolated:   -44.921920

 Band  Eigenvalues  Occupancy
    0    -25.61866    2.00000
    1    -18.43607    2.00000
    2    -14.89863    2.00000
    3    -12.61098    2.00000
    4    -11.26315    2.00000
    5     -9.73268    2.00000
    6     -9.19688    2.00000
    7     -8.62518    2.00000
    8     -7.80135    2.00000
    9     -6.03657    2.00000
   10     -0.61485    0.00000
   11     -0.08600    0.00000
   12      0.19064    0.00000
   13      0.30292    0.00000
   14      0.31337    0.00000
   15      0.49325    0.00000

Fermi level: -3.32571

Gap: 5.422 eV
Transition (v -> c):
  (s=0, k=0, n=9, [0.00, 0.00, 0.00]) -> (s=0, k=0, n=10, [0.00, 0.00, 0.00])

Forces in eV/Ang:
  0 H     0.09516   -0.14630   -0.18118
  1 H     0.14933   -0.08688    0.18354
  2 H    -0.05592    0.19744   -0.15097
  3 H    -0.16810   -0.15504   -0.47190
  4 H    -0.43325   -0.12178    0.16391
  5 C     0.19096    0.22373    0.07243
  6 O     0.32672    0.62245    0.29622
  7 C    -0.22032    0.06613    0.19960
  8 H     0.09432   -0.51787   -0.04307

System changes: positions 

Initializing position-dependent things.

Density initialized from wave functions
          .-------------------------------------.  
         /|                                     |  
        / |                                     |  
       /  |                                     |  
      /   |                                     |  
     /    |                                     |  
    /     |                                     |  
   /      |                                     |  
  /       |                                     |  
 *        |                                     |  
 |        |                                     |  
 |        |                                     |  
 |        |         H  O                        |  
 |        |                  H                  |  
 |        |            HC  CH                   |  
 |        |           H     H                   |  
 |        |                                     |  
 |        |                                     |  
 |        .-------------------------------------.  
 |       /                                     /   
 |      /                                     /    
 |     /                                     /     
 |    /                                     /      
 |   /                                     /       
 |  /                                     /        
 | /                                     /         
 |/                                     /          
 *-------------------------------------*           

Positions:
   0 H      9.231759    6.935710    5.997412    ( 0.0000,  0.0000,  0.0000)
   1 H      9.453333    7.560559    7.654922    ( 0.0000,  0.0000,  0.0000)
   2 H      8.708001    8.587521    6.426643    ( 0.0000,  0.0000,  0.0000)
   3 H      6.739899    7.034385    6.303959    ( 0.0000,  0.0000,  0.0000)
   4 H      5.993811    7.482860    8.419642    ( 0.0000,  0.0000,  0.0000)
   5 C      7.419728    7.026696    7.173035    ( 0.0000,  0.0000,  0.0000)
   6 O      6.877767    7.857192    8.195832    ( 0.0000,  0.0000,  0.0000)
   7 C      8.778653    7.553045    6.788551    ( 0.0000,  0.0000,  0.0000)
   8 H      7.496047    5.992602    7.550085    ( 0.0000,  0.0000,  0.0000)

Unit cell:
           periodic     x           y           z      points  spacing
  1. axis:    no    15.451200    0.000000    0.000000    72     0.2146
  2. axis:    no     0.000000   14.584700    0.000000    70     0.2084
  3. axis:    no     0.000000    0.000000   14.417300    70     0.2060

  Lengths:  15.451200  14.584700  14.417300
  Angles:   90.000000  90.000000  90.000000

Effective grid spacing dv^(1/3) = 0.2096

                     log10-error:    total        iterations:
           time      wfs    density  energy       poisson
iter:   1  10:17:15  -2.74          -44.940268           
iter:   2  10:17:18  -4.24  -2.39   -44.939769           
iter:   3  10:17:21  -3.05  -2.41   -44.937894           
iter:   4  10:17:25  -4.62  -2.68   -44.937348           
iter:   5  10:17:28  -4.10  -2.84   -44.938221           
iter:   6  10:17:32  -3.82  -2.56   -44.937195           
iter:   7  10:17:35  -5.66  -3.41   -44.937218           
iter:   8  10:17:39  -5.63  -3.31   -44.937202           
iter:   9  10:17:42  -5.51  -3.51   -44.937209           
iter:  10  10:17:46  -7.02  -3.71   -44.937208           
iter:  11  10:17:49  -5.70  -3.74   -44.937207           
iter:  12  10:17:53  -6.74  -3.80   -44.937205           
iter:  13  10:17:56  -6.75  -4.22   -44.937205           
iter:  14  10:18:00  -7.92  -4.47   -44.937205           

Converged after 14 iterations.

Dipole moment: (-0.128880, -0.252059, -0.131993) |e|*Ang

Energy contributions relative to reference atoms: (reference = -4171.049506)

Kinetic:        +34.948807
Potential:      -38.457637
External:        +0.000000
XC:             -41.329939
Entropy (-ST):   +0.000000
Local:           -0.098436
--------------------------
Free energy:    -44.937205
Extrapolated:   -44.937205

 Band  Eigenvalues  Occupancy
    0    -25.53532    2.00000
    1    -18.43319    2.00000
    2    -14.83185    2.00000
    3    -12.55903    2.00000
    4    -11.22608    2.00000
    5     -9.73876    2.00000
    6     -9.15217    2.00000
    7     -8.59600    2.00000
    8     -7.84283    2.00000
    9     -6.03469    2.00000
   10     -0.63904    0.00000
   11     -0.09960    0.00000
   12      0.18545    0.00000
   13      0.29664    0.00000
   14      0.30659    0.00000
   15      0.49252    0.00000

Fermi level: -3.33686

Gap: 5.396 eV
Transition (v -> c):
  (s=0, k=0, n=9, [0.00, 0.00, 0.00]) -> (s=0, k=0, n=10, [0.00, 0.00, 0.00])

Forces in eV/Ang:
  0 H    -0.00813   -0.02021   -0.01259
  1 H     0.08300   -0.07105    0.10910
  2 H    -0.04631    0.10347   -0.09918
  3 H    -0.00993   -0.11912   -0.21948
  4 H     0.10576    0.12976    0.04641
  5 C    -0.09025   -0.00219    0.05409
  6 O    -0.21148    0.23267    0.27942
  7 C     0.08000    0.06260    0.00474
  8 H     0.06464   -0.22256   -0.09735

System changes: positions 

Initializing position-dependent things.

Density initialized from wave functions
          .-------------------------------------.  
         /|                                     |  
        / |                                     |  
       /  |                                     |  
      /   |                                     |  
     /    |                                     |  
    /     |                                     |  
   /      |                                     |  
  /       |                                     |  
 *        |                                     |  
 |        |                                     |  
 |        |                                     |  
 |        |         H  O                        |  
 |        |                  H                  |  
 |        |            HC  CH                   |  
 |        |           H     H                   |  
 |        |                                     |  
 |        |                                     |  
 |        .-------------------------------------.  
 |       /                                     /   
 |      /                                     /    
 |     /                                     /     
 |    /                                     /      
 |   /                                     /       
 |  /                                     /        
 | /                                     /         
 |/                                     /          
 *-------------------------------------*           

Positions:
   0 H      9.232015    6.934707    5.996402    ( 0.0000,  0.0000,  0.0000)
   1 H      9.455521    7.558861    7.657743    ( 0.0000,  0.0000,  0.0000)
   2 H      8.706898    8.590296    6.424147    ( 0.0000,  0.0000,  0.0000)
   3 H      6.738994    7.031499    6.297844    ( 0.0000,  0.0000,  0.0000)
   4 H      5.993931    7.484761    8.421209    ( 0.0000,  0.0000,  0.0000)
   5 C      7.418860    7.027612    7.174354    ( 0.0000,  0.0000,  0.0000)
   6 O      6.875218    7.864197    8.202314    ( 0.0000,  0.0000,  0.0000)
   7 C      8.779203    7.554496    6.789494    ( 0.0000,  0.0000,  0.0000)
   8 H      7.497657    5.986233    7.548084    ( 0.0000,  0.0000,  0.0000)

Unit cell:
           periodic     x           y           z      points  spacing
  1. axis:    no    15.451200    0.000000    0.000000    72     0.2146
  2. axis:    no     0.000000   14.584700    0.000000    70     0.2084
  3. axis:    no     0.000000    0.000000   14.417300    70     0.2060

  Lengths:  15.451200  14.584700  14.417300
  Angles:   90.000000  90.000000  90.000000

Effective grid spacing dv^(1/3) = 0.2096

                     log10-error:    total        iterations:
           time      wfs    density  energy       poisson
iter:   1  10:18:05  -3.06          -44.943942           
iter:   2  10:18:09  -4.54  -2.64   -44.943808           
iter:   3  10:18:12  -3.46  -2.66   -44.943310           
iter:   4  10:18:16  -4.73  -3.03   -44.943144           
iter:   5  10:18:19  -4.47  -3.07   -44.943346           
iter:   6  10:18:23  -4.30  -2.92   -44.943115           
iter:   7  10:18:26  -5.89  -3.65   -44.943113           
iter:   8  10:18:30  -5.84  -3.65   -44.943111           
iter:   9  10:18:33  -5.69  -3.89   -44.943118           
iter:  10  10:18:37  -5.59  -3.71   -44.943112           
iter:  11  10:18:40  -7.15  -4.21   -44.943111           
iter:  12  10:18:44  -7.16  -4.47   -44.943111           
iter:  13  10:18:47  -8.17  -4.86   -44.943111           

Converged after 13 iterations.

Dipole moment: (-0.125788, -0.254870, -0.135740) |e|*Ang

Energy contributions relative to reference atoms: (reference = -4171.049506)

Kinetic:        +33.828560
Potential:      -37.633795
External:        +0.000000
XC:             -41.038903
Entropy (-ST):   +0.000000
Local:           -0.098972
--------------------------
Free energy:    -44.943111
Extrapolated:   -44.943111

 Band  Eigenvalues  Occupancy
    0    -25.49263    2.00000
    1    -18.42594    2.00000
    2    -14.80621    2.00000
    3    -12.52513    2.00000
    4    -11.18957    2.00000
    5     -9.71926    2.00000
    6     -9.13820    2.00000
    7     -8.58700    2.00000
    8     -7.87396    2.00000
    9     -6.05191    2.00000
   10     -0.63764    0.00000
   11     -0.10205    0.00000
   12      0.18063    0.00000
   13      0.29280    0.00000
   14      0.30313    0.00000
   15      0.49251    0.00000

Fermi level: -3.34478

Gap: 5.414 eV
Transition (v -> c):
  (s=0, k=0, n=9, [0.00, 0.00, 0.00]) -> (s=0, k=0, n=10, [0.00, 0.00, 0.00])

Forces in eV/Ang:
  0 H    -0.04205    0.02610    0.04692
  1 H     0.03355   -0.05095    0.03871
  2 H    -0.02680    0.02835   -0.05589
  3 H     0.07230   -0.08246   -0.04041
  4 H     0.02836    0.11744    0.08237
  5 C    -0.15786   -0.02137    0.07430
  6 O    -0.05943    0.04095    0.02956
  7 C     0.09503    0.05923   -0.00862
  8 H     0.02935   -0.02321   -0.10703

System changes: positions 

Initializing position-dependent things.

Density initialized from wave functions
          .-------------------------------------.  
         /|                                     |  
        / |                                     |  
       /  |                                     |  
      /   |                                     |  
     /    |                                     |  
    /     |                                     |  
   /      |                                     |  
  /       |                                     |  
 *        |                                     |  
 |        |                                     |  
 |        |                                     |  
 |        |         H  O                        |  
 |        |                  H                  |  
 |        |            HC  CH                   |  
 |        |           H     H                   |  
 |        |                                     |  
 |        |                                     |  
 |        .-------------------------------------.  
 |       /                                     /   
 |      /                                     /    
 |     /                                     /     
 |    /                                     /      
 |   /                                     /       
 |  /                                     /        
 | /                                     /         
 |/                                     /          
 *-------------------------------------*           

Positions:
   0 H      9.231421    6.934736    5.996773    ( 0.0000,  0.0000,  0.0000)
   1 H      9.456913    7.557345    7.659429    ( 0.0000,  0.0000,  0.0000)
   2 H      8.706039    8.591796    6.422248    ( 0.0000,  0.0000,  0.0000)
   3 H      6.739916    7.028988    6.294904    ( 0.0000,  0.0000,  0.0000)
   4 H      5.993646    7.487218    8.423479    ( 0.0000,  0.0000,  0.0000)
   5 C      7.415941    7.027816    7.176232    ( 0.0000,  0.0000,  0.0000)
   6 O      6.874200    7.867624    8.204756    ( 0.0000,  0.0000,  0.0000)
   7 C      8.780754    7.556087    6.789907    ( 0.0000,  0.0000,  0.0000)
   8 H      7.498743    5.983493    7.545483    ( 0.0000,  0.0000,  0.0000)

Unit cell:
           periodic     x           y           z      points  spacing
  1. axis:    no    15.451200    0.000000    0.000000    72     0.2146
  2. axis:    no     0.000000   14.584700    0.000000    70     0.2084
  3. axis:    no     0.000000    0.000000   14.417300    70     0.2060

  Lengths:  15.451200  14.584700  14.417300
  Angles:   90.000000  90.000000  90.000000

Effective grid spacing dv^(1/3) = 0.2096

                     log10-error:    total        iterations:
           time      wfs    density  energy       poisson
iter:   1  10:18:53  -3.51          -44.945205           
iter:   2  10:18:56  -4.85  -2.85   -44.945169           
iter:   3  10:19:00  -4.24  -2.86   -44.944965           
iter:   4  10:19:03  -6.18  -3.29   -44.944965           
iter:   5  10:19:07  -5.66  -3.27   -44.944974           
iter:   6  10:19:10  -5.28  -3.21   -44.944959           
iter:   7  10:19:14  -6.51  -3.82   -44.944956           
iter:   8  10:19:17  -6.32  -3.94   -44.944956           
iter:   9  10:19:21  -6.47  -4.05   -44.944956           
iter:  10  10:19:24  -6.80  -4.22   -44.944955           
iter:  11  10:19:27  -7.44  -4.39   -44.944955           

Converged after 11 iterations.

Dipole moment: (-0.126483, -0.255778, -0.135617) |e|*Ang

Energy contributions relative to reference atoms: (reference = -4171.049506)

Kinetic:        +33.349526
Potential:      -37.277254
External:        +0.000000
XC:             -40.918532
Entropy (-ST):   +0.000000
Local:           -0.098695
--------------------------
Free energy:    -44.944955
Extrapolated:   -44.944955

 Band  Eigenvalues  Occupancy
    0    -25.48895    2.00000
    1    -18.40425    2.00000
    2    -14.80084    2.00000
    3    -12.52034    2.00000
    4    -11.17144    2.00000
    5     -9.70064    2.00000
    6     -9.13146    2.00000
    7     -8.59283    2.00000
    8     -7.87953    2.00000
    9     -6.06479    2.00000
   10     -0.63694    0.00000
   11     -0.10348    0.00000
   12      0.17866    0.00000
   13      0.29128    0.00000
   14      0.30303    0.00000
   15      0.49262    0.00000

Fermi level: -3.35086

Gap: 5.428 eV
Transition (v -> c):
  (s=0, k=0, n=9, [0.00, 0.00, 0.00]) -> (s=0, k=0, n=10, [0.00, 0.00, 0.00])

Forces in eV/Ang:
  0 H    -0.03981    0.02813    0.04728
  1 H     0.01519   -0.03230    0.00833
  2 H    -0.01141    0.00251   -0.03171
  3 H     0.07318   -0.05726    0.01878
  4 H     0.00696    0.11933    0.09635
  5 C    -0.03451    0.01168    0.02536
  6 O    -0.03427   -0.04210   -0.05062
  7 C    -0.00739    0.02687    0.02756
  8 H     0.00617    0.03727   -0.08323

System changes: positions 

Initializing position-dependent things.

Density initialized from wave functions
          .-------------------------------------.  
         /|                                     |  
        / |                                     |  
       /  |                                     |  
      /   |                                     |  
     /    |                                     |  
    /     |                                     |  
   /      |                                     |  
  /       |                                     |  
 *        |                                     |  
 |        |                                     |  
 |        |                                     |  
 |        |         H  O                        |  
 |        |                  H                  |  
 |        |            HC  CH                   |  
 |        |           H     H                   |  
 |        |                                     |  
 |        |                                     |  
 |        .-------------------------------------.  
 |       /                                     /   
 |      /                                     /    
 |     /                                     /     
 |    /                                     /      
 |   /                                     /       
 |  /                                     /        
 | /                                     /         
 |/                                     /          
 *-------------------------------------*           

Positions:
   0 H      9.230399    6.935185    5.997752    ( 0.0000,  0.0000,  0.0000)
   1 H      9.458072    7.555843    7.660631    ( 0.0000,  0.0000,  0.0000)
   2 H      8.705322    8.592801    6.420500    ( 0.0000,  0.0000,  0.0000)
   3 H      6.741695    7.026407    6.293340    ( 0.0000,  0.0000,  0.0000)
   4 H      5.993427    7.490877    8.426712    ( 0.0000,  0.0000,  0.0000)
   5 C      7.414080    7.028368    7.177683    ( 0.0000,  0.0000,  0.0000)
   6 O      6.873036    7.869040    8.205351    ( 0.0000,  0.0000,  0.0000)
   7 C      8.781115    7.557466    6.790875    ( 0.0000,  0.0000,  0.0000)
   8 H      7.499501    5.982360    7.542443    ( 0.0000,  0.0000,  0.0000)

Unit cell:
           periodic     x           y           z      points  spacing
  1. axis:    no    15.451200    0.000000    0.000000    72     0.2146
  2. axis:    no     0.000000   14.584700    0.000000    70     0.2084
  3. axis:    no     0.000000    0.000000   14.417300    70     0.2060

  Lengths:  15.451200  14.584700  14.417300
  Angles:   90.000000  90.000000  90.000000

Effective grid spacing dv^(1/3) = 0.2096

                     log10-error:    total        iterations:
           time      wfs    density  energy       poisson
iter:   1  10:19:33  -3.74          -44.946256           
iter:   2  10:19:37  -5.08  -3.01   -44.946247           
iter:   3  10:19:40  -4.87  -3.02   -44.946167           
iter:   4  10:19:43  -5.62  -3.32   -44.946166           
iter:   5  10:19:47  -5.18  -3.38   -44.946184           
iter:   6  10:19:50  -5.32  -3.38   -44.946160           
iter:   7  10:19:54  -6.48  -4.01   -44.946160           
iter:   8  10:19:57  -6.87  -4.00   -44.946160           
iter:   9  10:20:01  -7.22  -4.21   -44.946160           
iter:  10  10:20:04  -8.34  -4.40   -44.946160           

Converged after 10 iterations.

Dipole moment: (-0.127516, -0.255641, -0.134331) |e|*Ang

Energy contributions relative to reference atoms: (reference = -4171.049506)

Kinetic:        +33.204125
Potential:      -37.164537
External:        +0.000000
XC:             -40.886979
Entropy (-ST):   +0.000000
Local:           -0.098770
--------------------------
Free energy:    -44.946160
Extrapolated:   -44.946160

 Band  Eigenvalues  Occupancy
    0    -25.49882    2.00000
    1    -18.39477    2.00000
    2    -14.80215    2.00000
    3    -12.53162    2.00000
    4    -11.16163    2.00000
    5     -9.69062    2.00000
    6     -9.12556    2.00000
    7     -8.59721    2.00000
    8     -7.87746    2.00000
    9     -6.07284    2.00000
   10     -0.63515    0.00000
   11     -0.10338    0.00000
   12      0.17768    0.00000
   13      0.29064    0.00000
   14      0.30347    0.00000
   15      0.49270    0.00000

Fermi level: -3.35400

Gap: 5.438 eV
Transition (v -> c):
  (s=0, k=0, n=9, [0.00, 0.00, 0.00]) -> (s=0, k=0, n=10, [0.00, 0.00, 0.00])

Forces in eV/Ang:
  0 H    -0.03941    0.02530    0.04469
  1 H    -0.00152   -0.01447   -0.01159
  2 H    -0.00118   -0.01465   -0.00877
  3 H     0.05844   -0.03470    0.03518
  4 H    -0.03869    0.09264    0.10144
  5 C     0.03748    0.01684   -0.01413
  6 O     0.01901   -0.04564   -0.07907
  7 C    -0.05140    0.01296    0.04307
  8 H    -0.00357    0.05495   -0.05380

System changes: positions 

Initializing position-dependent things.

Density initialized from wave functions
          .-------------------------------------.  
         /|                                     |  
        / |                                     |  
       /  |                                     |  
      /   |                                     |  
     /    |                                     |  
    /     |                                     |  
   /      |                                     |  
  /       |                                     |  
 *        |                                     |  
 |        |                                     |  
 |        |                                     |  
 |        |         H  O                        |  
 |        |                  H                  |  
 |        |            HC  CH                   |  
 |        |           H     H                   |  
 |        |                                     |  
 |        |                                     |  
 |        .-------------------------------------.  
 |       /                                     /   
 |      /                                     /    
 |     /                                     /     
 |    /                                     /      
 |   /                                     /       
 |  /                                     /        
 | /                                     /         
 |/                                     /          
 *-------------------------------------*           

Positions:
   0 H      9.228077    6.936366    6.000117    ( 0.0000,  0.0000,  0.0000)
   1 H      9.459575    7.553515    7.662000    ( 0.0000,  0.0000,  0.0000)
   2 H      8.704320    8.593830    6.417982    ( 0.0000,  0.0000,  0.0000)
   3 H      6.745347    7.022148    6.291858    ( 0.0000,  0.0000,  0.0000)
   4 H      5.992259    7.497877    8.433341    ( 0.0000,  0.0000,  0.0000)
   5 C      7.412339    7.029314    7.179227    ( 0.0000,  0.0000,  0.0000)
   6 O      6.871862    7.870242    8.204656    ( 0.0000,  0.0000,  0.0000)
   7 C      8.780665    7.559679    6.793066    ( 0.0000,  0.0000,  0.0000)
   8 H      7.500493    5.981928    7.537179    ( 0.0000,  0.0000,  0.0000)

Unit cell:
           periodic     x           y           z      points  spacing
  1. axis:    no    15.451200    0.000000    0.000000    72     0.2146
  2. axis:    no     0.000000   14.584700    0.000000    70     0.2084
  3. axis:    no     0.000000    0.000000   14.417300    70     0.2060

  Lengths:  15.451200  14.584700  14.417300
  Angles:   90.000000  90.000000  90.000000

Effective grid spacing dv^(1/3) = 0.2096

                     log10-error:    total        iterations:
           time      wfs    density  energy       poisson
iter:   1  10:20:10  -3.32          -44.947784           
iter:   2  10:20:13  -4.67  -2.83   -44.947792           
iter:   3  10:20:17  -4.98  -2.84   -44.947693           
iter:   4  10:20:20  -5.09  -3.10   -44.947685           
iter:   5  10:20:24  -5.61  -3.34   -44.947674           
iter:   6  10:20:27  -6.50  -3.57   -44.947673           
iter:   7  10:20:31  -6.63  -3.90   -44.947674           
iter:   8  10:20:34  -6.72  -3.89   -44.947673           
iter:   9  10:20:38  -8.03  -4.44   -44.947673           

Converged after 9 iterations.

Dipole moment: (-0.129352, -0.254919, -0.131574) |e|*Ang

Energy contributions relative to reference atoms: (reference = -4171.049506)

Kinetic:        +33.212353
Potential:      -37.164899
External:        +0.000000
XC:             -40.896744
Entropy (-ST):   +0.000000
Local:           -0.098384
--------------------------
Free energy:    -44.947673
Extrapolated:   -44.947673

 Band  Eigenvalues  Occupancy
    0    -25.50906    2.00000
    1    -18.39128    2.00000
    2    -14.80855    2.00000
    3    -12.55519    2.00000
    4    -11.15412    2.00000
    5     -9.68026    2.00000
    6     -9.11420    2.00000
    7     -8.60325    2.00000
    8     -7.86854    2.00000
    9     -6.07798    2.00000
   10     -0.63370    0.00000
   11     -0.10323    0.00000
   12      0.17688    0.00000
   13      0.29005    0.00000
   14      0.30452    0.00000
   15      0.49280    0.00000

Fermi level: -3.35584

Gap: 5.444 eV
Transition (v -> c):
  (s=0, k=0, n=9, [0.00, 0.00, 0.00]) -> (s=0, k=0, n=10, [0.00, 0.00, 0.00])

Forces in eV/Ang:
  0 H    -0.03415    0.01504    0.03291
  1 H    -0.02097    0.01398   -0.02651
  2 H     0.01012   -0.02532    0.02413
  3 H     0.01974    0.00042    0.02523
  4 H    -0.05234    0.05931    0.08130
  5 C     0.09852    0.01164   -0.05770
  6 O     0.03850   -0.01980   -0.05915
  7 C    -0.06824   -0.00422    0.03855
  8 H    -0.00822    0.04444    0.00074

System changes: positions 

Initializing position-dependent things.

Density initialized from wave functions
          .-------------------------------------.  
         /|                                     |  
        / |                                     |  
       /  |                                     |  
      /   |                                     |  
     /    |                                     |  
    /     |                                     |  
   /      |                                     |  
  /       |                                     |  
 *        |                                     |  
 |        |                                     |  
 |        |                                     |  
 |        |         H  O                        |  
 |        |                  H                  |  
 |        |            HC  CH                   |  
 |        |           H     H                   |  
 |        |                                     |  
 |        |                                     |  
 |        .-------------------------------------.  
 |       /                                     /   
 |      /                                     /    
 |     /                                     /     
 |    /                                     /      
 |   /                                     /       
 |  /                                     /        
 | /                                     /         
 |/                                     /          
 *-------------------------------------*           

Positions:
   0 H      9.225949    6.937438    6.002279    ( 0.0000,  0.0000,  0.0000)
   1 H      9.460093    7.552344    7.662370    ( 0.0000,  0.0000,  0.0000)
   2 H      8.703871    8.593994    6.416896    ( 0.0000,  0.0000,  0.0000)
   3 H      6.748021    7.019544    6.291423    ( 0.0000,  0.0000,  0.0000)
   4 H      5.991049    7.503450    8.438775    ( 0.0000,  0.0000,  0.0000)
   5 C      7.412585    7.029886    7.179217    ( 0.0000,  0.0000,  0.0000)
   6 O      6.871379    7.870552    8.203347    ( 0.0000,  0.0000,  0.0000)
   7 C      8.779608    7.561018    6.794869    ( 0.0000,  0.0000,  0.0000)
   8 H      7.500987    5.982521    7.533929    ( 0.0000,  0.0000,  0.0000)

Unit cell:
           periodic     x           y           z      points  spacing
  1. axis:    no    15.451200    0.000000    0.000000    72     0.2146
  2. axis:    no     0.000000   14.584700    0.000000    70     0.2084
  3. axis:    no     0.000000    0.000000   14.417300    70     0.2060

  Lengths:  15.451200  14.584700  14.417300
  Angles:   90.000000  90.000000  90.000000

Effective grid spacing dv^(1/3) = 0.2096

                     log10-error:    total        iterations:
           time      wfs    density  energy       poisson
iter:   1  10:20:43  -3.58          -44.948586           
iter:   2  10:20:47  -5.00  -2.92   -44.948580           
iter:   3  10:20:50  -4.65  -2.93   -44.948491           
iter:   4  10:20:54  -5.64  -3.38   -44.948495           
iter:   5  10:20:57  -5.13  -3.41   -44.948493           
iter:   6  10:21:01  -6.08  -3.45   -44.948484           
iter:   7  10:21:04  -6.17  -3.86   -44.948482           
iter:   8  10:21:08  -7.12  -4.12   -44.948482           
iter:   9  10:21:11  -7.72  -4.44   -44.948482           

Converged after 9 iterations.

Dipole moment: (-0.129972, -0.254275, -0.129838) |e|*Ang

Energy contributions relative to reference atoms: (reference = -4171.049506)

Kinetic:        +33.368474
Potential:      -37.277635
External:        +0.000000
XC:             -40.940999
Entropy (-ST):   +0.000000
Local:           -0.098322
--------------------------
Free energy:    -44.948482
Extrapolated:   -44.948482

 Band  Eigenvalues  Occupancy
    0    -25.50481    2.00000
    1    -18.40118    2.00000
    2    -14.81558    2.00000
    3    -12.56951    2.00000
    4    -11.15423    2.00000
    5     -9.67757    2.00000
    6     -9.10748    2.00000
    7     -8.60502    2.00000
    8     -7.86118    2.00000
    9     -6.07619    2.00000
   10     -0.63319    0.00000
   11     -0.10298    0.00000
   12      0.17683    0.00000
   13      0.28985    0.00000
   14      0.30529    0.00000
   15      0.49285    0.00000

Fermi level: -3.35469

Gap: 5.443 eV
Transition (v -> c):
  (s=0, k=0, n=9, [0.00, 0.00, 0.00]) -> (s=0, k=0, n=10, [0.00, 0.00, 0.00])

Forces in eV/Ang:
  0 H    -0.02388    0.00186    0.01554
  1 H    -0.02513    0.02879   -0.01971
  2 H     0.01174   -0.01637    0.03810
  3 H    -0.00784    0.01960   -0.00085
  4 H    -0.03080    0.03730    0.04943
  5 C     0.06914    0.00432   -0.04616
  6 O     0.03509    0.00820   -0.02806
  7 C    -0.03987   -0.00861    0.01614
  8 H    -0.00305    0.01840    0.03347

System changes: positions 

Initializing position-dependent things.

Density initialized from wave functions
          .-------------------------------------.  
         /|                                     |  
        / |                                     |  
       /  |                                     |  
      /   |                                     |  
     /    |                                     |  
    /     |                                     |  
   /      |                                     |  
  /       |                                     |  
 *        |                                     |  
 |        |                                     |  
 |        |                                     |  
 |        |         H  O                        |  
 |        |                  H                  |  
 |        |            HC  CH                   |  
 |        |           H     H                   |  
 |        |                                     |  
 |        |                                     |  
 |        .-------------------------------------.  
 |       /                                     /   
 |      /                                     /    
 |     /                                     /     
 |    /                                     /      
 |   /                                     /       
 |  /                                     /        
 | /                                     /         
 |/                                     /          
 *-------------------------------------*           

Positions:
   0 H      9.224562    6.937983    6.003556    ( 0.0000,  0.0000,  0.0000)
   1 H      9.459803    7.552412    7.662141    ( 0.0000,  0.0000,  0.0000)
   2 H      8.703901    8.593729    6.417192    ( 0.0000,  0.0000,  0.0000)
   3 H      6.749090    7.018856    6.291354    ( 0.0000,  0.0000,  0.0000)
   4 H      5.990330    7.506614    8.441865    ( 0.0000,  0.0000,  0.0000)
   5 C      7.413562    7.030064    7.178481    ( 0.0000,  0.0000,  0.0000)
   6 O      6.871555    7.870599    8.202232    ( 0.0000,  0.0000,  0.0000)
   7 C      8.778734    7.561434    6.795738    ( 0.0000,  0.0000,  0.0000)
   8 H      7.501137    5.983280    7.533176    ( 0.0000,  0.0000,  0.0000)

Unit cell:
           periodic     x           y           z      points  spacing
  1. axis:    no    15.451200    0.000000    0.000000    72     0.2146
  2. axis:    no     0.000000   14.584700    0.000000    70     0.2084
  3. axis:    no     0.000000    0.000000   14.417300    70     0.2060

  Lengths:  15.451200  14.584700  14.417300
  Angles:   90.000000  90.000000  90.000000

Effective grid spacing dv^(1/3) = 0.2096

                     log10-error:    total        iterations:
           time      wfs    density  energy       poisson
iter:   1  10:21:17  -3.97          -44.948929           
iter:   2  10:21:20  -5.40  -3.08   -44.948915           
iter:   3  10:21:24  -4.49  -3.10   -44.948849           
iter:   4  10:21:27  -6.47  -3.41   -44.948839           
iter:   5  10:21:30  -5.85  -3.46   -44.948859           
iter:   6  10:21:34  -5.24  -3.30   -44.948829           
iter:   7  10:21:37  -6.97  -4.06   -44.948830           
iter:   8  10:21:41  -6.55  -4.03   -44.948829           
iter:   9  10:21:44  -7.29  -4.35   -44.948829           
iter:  10  10:21:48  -7.06  -4.33   -44.948829           
iter:  11  10:21:51  -7.66  -4.46   -44.948829           

Converged after 11 iterations.

Dipole moment: (-0.129910, -0.253880, -0.129059) |e|*Ang

Energy contributions relative to reference atoms: (reference = -4171.049506)

Kinetic:        +33.515947
Potential:      -37.386833
External:        +0.000000
XC:             -40.979497
Entropy (-ST):   +0.000000
Local:           -0.098446
--------------------------
Free energy:    -44.948829
Extrapolated:   -44.948829

 Band  Eigenvalues  Occupancy
    0    -25.49493    2.00000
    1    -18.41283    2.00000
    2    -14.81988    2.00000
    3    -12.57340    2.00000
    4    -11.15773    2.00000
    5     -9.67927    2.00000
    6     -9.10655    2.00000
    7     -8.60357    2.00000
    8     -7.85685    2.00000
    9     -6.07246    2.00000
   10     -0.63357    0.00000
   11     -0.10286    0.00000
   12      0.17708    0.00000
   13      0.28982    0.00000
   14      0.30556    0.00000
   15      0.49287    0.00000

Fermi level: -3.35302

Gap: 5.439 eV
Transition (v -> c):
  (s=0, k=0, n=9, [0.00, 0.00, 0.00]) -> (s=0, k=0, n=10, [0.00, 0.00, 0.00])

Forces in eV/Ang:
  0 H    -0.01270   -0.00864   -0.00021
  1 H    -0.01854    0.02965   -0.00383
  2 H     0.00766    0.00018    0.03501
  3 H    -0.01622    0.02243   -0.01892
  4 H     0.00388    0.03133    0.02300
  5 C     0.01325   -0.00115   -0.01656
  6 O     0.01453    0.02816    0.00185
  7 C    -0.00970   -0.00658   -0.00117
  8 H     0.00327   -0.00048    0.04019

System changes: positions 

Initializing position-dependent things.

Density initialized from wave functions
          .-------------------------------------.  
         /|                                     |  
        / |                                     |  
       /  |                                     |  
      /   |                                     |  
     /    |                                     |  
    /     |                                     |  
   /      |                                     |  
  /       |                                     |  
 *        |                                     |  
 |        |                                     |  
 |        |                                     |  
 |        |         H  O                        |  
 |        |                  H                  |  
 |        |            HC  CH                   |  
 |        |           H     H                   |  
 |        |                                     |  
 |        |                                     |  
 |        .-------------------------------------.  
 |       /                                     /   
 |      /                                     /    
 |     /                                     /     
 |    /                                     /      
 |   /                                     /       
 |  /                                     /        
 | /                                     /         
 |/                                     /          
 *-------------------------------------*           

Positions:
   0 H      9.223761    6.938047    6.004074    ( 0.0000,  0.0000,  0.0000)
   1 H      9.459309    7.553029    7.661955    ( 0.0000,  0.0000,  0.0000)
   2 H      8.704069    8.593605    6.418010    ( 0.0000,  0.0000,  0.0000)
   3 H      6.749229    7.019045    6.291041    ( 0.0000,  0.0000,  0.0000)
   4 H      5.990192    7.508493    8.443505    ( 0.0000,  0.0000,  0.0000)
   5 C      7.414154    7.030088    7.177878    ( 0.0000,  0.0000,  0.0000)
   6 O      6.871866    7.871064    8.201769    ( 0.0000,  0.0000,  0.0000)
   7 C      8.778225    7.561458    6.796032    ( 0.0000,  0.0000,  0.0000)
   8 H      7.501244    5.983659    7.533666    ( 0.0000,  0.0000,  0.0000)

Unit cell:
           periodic     x           y           z      points  spacing
  1. axis:    no    15.451200    0.000000    0.000000    72     0.2146
  2. axis:    no     0.000000   14.584700    0.000000    70     0.2084
  3. axis:    no     0.000000    0.000000   14.417300    70     0.2060

  Lengths:  15.451200  14.584700  14.417300
  Angles:   90.000000  90.000000  90.000000

Effective grid spacing dv^(1/3) = 0.2096

                     log10-error:    total        iterations:
           time      wfs    density  energy       poisson
iter:   1  10:21:57  -4.40          -44.949050           
iter:   2  10:22:00  -5.86  -3.26   -44.949043           
iter:   3  10:22:04  -4.76  -3.27   -44.949014           
iter:   4  10:22:07  -6.41  -3.53   -44.949004           
iter:   5  10:22:11  -6.24  -3.63   -44.949013           
iter:   6  10:22:14  -5.53  -3.48   -44.949001           
iter:   7  10:22:18  -7.23  -4.20   -44.949000           
iter:   8  10:22:21  -7.07  -4.25   -44.949000           
iter:   9  10:22:24  -7.17  -4.31   -44.949000           
iter:  10  10:22:28  -8.07  -4.58   -44.949000           

Converged after 10 iterations.

Dipole moment: (-0.129621, -0.253676, -0.128758) |e|*Ang

Energy contributions relative to reference atoms: (reference = -4171.049506)

Kinetic:        +33.563597
Potential:      -37.423006
External:        +0.000000
XC:             -40.991405
Entropy (-ST):   +0.000000
Local:           -0.098186
--------------------------
Free energy:    -44.949000
Extrapolated:   -44.949000

 Band  Eigenvalues  Occupancy
    0    -25.48628    2.00000
    1    -18.41928    2.00000
    2    -14.82045    2.00000
    3    -12.57161    2.00000
    4    -11.15921    2.00000
    5     -9.68048    2.00000
    6     -9.10732    2.00000
    7     -8.60036    2.00000
    8     -7.85545    2.00000
    9     -6.07113    2.00000
   10     -0.63375    0.00000
   11     -0.10278    0.00000
   12      0.17720    0.00000
   13      0.28970    0.00000
   14      0.30556    0.00000
   15      0.49289    0.00000

Fermi level: -3.35244

Gap: 5.437 eV
Transition (v -> c):
  (s=0, k=0, n=9, [0.00, 0.00, 0.00]) -> (s=0, k=0, n=10, [0.00, 0.00, 0.00])

Forces in eV/Ang:
  0 H    -0.00566   -0.01180   -0.00731
  1 H    -0.01245    0.02486    0.00662
  2 H     0.00350    0.00983    0.02769
  3 H    -0.01360    0.01970   -0.01821
  4 H     0.02276    0.02963    0.00988
  5 C    -0.03117   -0.00159    0.01079
  6 O     0.00472    0.02467    0.00400
  7 C     0.00896   -0.00223   -0.00931
  8 H     0.00363   -0.00160    0.03574

System changes: positions 

Initializing position-dependent things.

Density initialized from wave functions
          .-------------------------------------.  
         /|                                     |  
        / |                                     |  
       /  |                                     |  
      /   |                                     |  
     /    |                                     |  
    /     |                                     |  
   /      |                                     |  
  /       |                                     |  
 *        |                                     |  
 |        |                                     |  
 |        |                                     |  
 |        |         H  O                        |  
 |        |                  H                  |  
 |        |            HC  CH                   |  
 |        |           H     H                   |  
 |        |                                     |  
 |        |                                     |  
 |        .-------------------------------------.  
 |       /                                     /   
 |      /                                     /    
 |     /                                     /     
 |    /                                     /      
 |   /                                     /       
 |  /                                     /        
 | /                                     /         
 |/                                     /          
 *-------------------------------------*           

Positions:
   0 H      9.222697    6.937853    6.004511    ( 0.0000,  0.0000,  0.0000)
   1 H      9.458414    7.554346    7.661848    ( 0.0000,  0.0000,  0.0000)
   2 H      8.704364    8.593648    6.419639    ( 0.0000,  0.0000,  0.0000)
   3 H      6.749080    7.019756    6.290354    ( 0.0000,  0.0000,  0.0000)
   4 H      5.990448    7.511342    8.445688    ( 0.0000,  0.0000,  0.0000)
   5 C      7.414260    7.030126    7.177378    ( 0.0000,  0.0000,  0.0000)
   6 O      6.872470    7.872072    8.201156    ( 0.0000,  0.0000,  0.0000)
   7 C      8.777706    7.561409    6.796219    ( 0.0000,  0.0000,  0.0000)
   8 H      7.501409    5.984166    7.535099    ( 0.0000,  0.0000,  0.0000)

Unit cell:
           periodic     x           y           z      points  spacing
  1. axis:    no    15.451200    0.000000    0.000000    72     0.2146
  2. axis:    no     0.000000   14.584700    0.000000    70     0.2084
  3. axis:    no     0.000000    0.000000   14.417300    70     0.2060

  Lengths:  15.451200  14.584700  14.417300
  Angles:   90.000000  90.000000  90.000000

Effective grid spacing dv^(1/3) = 0.2096

                     log10-error:    total        iterations:
           time      wfs    density  energy       poisson
iter:   1  10:22:34  -4.21          -44.949269           
iter:   2  10:22:37  -5.64  -3.17   -44.949263           
iter:   3  10:22:40  -4.92  -3.18   -44.949226           
iter:   4  10:22:44  -6.62  -3.61   -44.949224           
iter:   5  10:22:47  -6.48  -3.61   -44.949229           
iter:   6  10:22:51  -5.67  -3.52   -44.949220           
iter:   7  10:22:54  -7.54  -4.18   -44.949220           

Converged after 7 iterations.

Dipole moment: (-0.129493, -0.253163, -0.127916) |e|*Ang

Energy contributions relative to reference atoms: (reference = -4171.049506)

Kinetic:        +33.596622
Potential:      -37.448979
External:        +0.000000
XC:             -40.999328
Entropy (-ST):   +0.000000
Local:           -0.097536
--------------------------
Free energy:    -44.949220
Extrapolated:   -44.949220

 Band  Eigenvalues  Occupancy
    0    -25.47914    2.00000
    1    -18.42386    2.00000
    2    -14.82062    2.00000
    3    -12.56957    2.00000
    4    -11.16074    2.00000
    5     -9.68159    2.00000
    6     -9.11014    2.00000
    7     -8.59607    2.00000
    8     -7.85224    2.00000
    9     -6.07060    2.00000
   10     -0.63371    0.00000
   11     -0.10253    0.00000
   12      0.17738    0.00000
   13      0.28948    0.00000
   14      0.30559    0.00000
   15      0.49292    0.00000

Fermi level: -3.35216

Gap: 5.437 eV
Transition (v -> c):
  (s=0, k=0, n=9, [0.00, 0.00, 0.00]) -> (s=0, k=0, n=10, [0.00, 0.00, 0.00])

Forces in eV/Ang:
  0 H     0.00301   -0.01365   -0.01440
  1 H    -0.00309    0.01455    0.01977
  2 H    -0.00269    0.02138    0.01397
  3 H    -0.00838    0.01248   -0.00895
  4 H     0.03908    0.02791   -0.00184
  5 C    -0.06385   -0.00124    0.03242
  6 O    -0.00865    0.02124    0.00737
  7 C     0.01859   -0.00161   -0.01456
  8 H    -0.00097    0.00241    0.02561

System changes: positions 

Initializing position-dependent things.

Density initialized from wave functions
          .-------------------------------------.  
         /|                                     |  
        / |                                     |  
       /  |                                     |  
      /   |                                     |  
     /    |                                     |  
    /     |                                     |  
   /      |                                     |  
  /       |                                     |  
 *        |                                     |  
 |        |                                     |  
 |        |                                     |  
 |        |         H  O                        |  
 |        |                  H                  |  
 |        |            HC  CH                   |  
 |        |           H     H                   |  
 |        |                                     |  
 |        |                                     |  
 |        .-------------------------------------.  
 |       /                                     /   
 |      /                                     /    
 |     /                                     /     
 |    /                                     /      
 |   /                                     /       
 |  /                                     /        
 | /                                     /         
 |/                                     /          
 *-------------------------------------*           

Positions:
   0 H      9.221274    6.937295    6.004818    ( 0.0000,  0.0000,  0.0000)
   1 H      9.457148    7.556419    7.662135    ( 0.0000,  0.0000,  0.0000)
   2 H      8.704703    8.594177    6.422123    ( 0.0000,  0.0000,  0.0000)
   3 H      6.748700    7.020915    6.289198    ( 0.0000,  0.0000,  0.0000)
   4 H      5.991331    7.515906    8.448879    ( 0.0000,  0.0000,  0.0000)
   5 C      7.413456    7.030260    7.177218    ( 0.0000,  0.0000,  0.0000)
   6 O      6.873297    7.874056    8.200439    ( 0.0000,  0.0000,  0.0000)
   7 C      8.777084    7.561285    6.796342    ( 0.0000,  0.0000,  0.0000)
   8 H      7.501585    5.984882    7.537553    ( 0.0000,  0.0000,  0.0000)

Unit cell:
           periodic     x           y           z      points  spacing
  1. axis:    no    15.451200    0.000000    0.000000    72     0.2146
  2. axis:    no     0.000000   14.584700    0.000000    70     0.2084
  3. axis:    no     0.000000    0.000000   14.417300    70     0.2060

  Lengths:  15.451200  14.584700  14.417300
  Angles:   90.000000  90.000000  90.000000

Effective grid spacing dv^(1/3) = 0.2096

                     log10-error:    total        iterations:
           time      wfs    density  energy       poisson
iter:   1  10:23:00  -3.85          -44.949540           
iter:   2  10:23:03  -5.27  -3.04   -44.949538           
iter:   3  10:23:07  -4.98  -3.05   -44.949487           
iter:   4  10:23:10  -6.08  -3.62   -44.949489           
iter:   5  10:23:14  -7.19  -3.64   -44.949489           
iter:   6  10:23:17  -5.82  -3.64   -44.949485           
iter:   7  10:23:21  -6.76  -3.91   -44.949484           
iter:   8  10:23:24  -8.14  -4.10   -44.949484           

Converged after 8 iterations.

Dipole moment: (-0.129828, -0.252234, -0.126168) |e|*Ang

Energy contributions relative to reference atoms: (reference = -4171.049506)

Kinetic:        +33.594500
Potential:      -37.448598
External:        +0.000000
XC:             -40.997572
Entropy (-ST):   +0.000000
Local:           -0.097814
--------------------------
Free energy:    -44.949484
Extrapolated:   -44.949484

 Band  Eigenvalues  Occupancy
    0    -25.47576    2.00000
    1    -18.42446    2.00000
    2    -14.81997    2.00000
    3    -12.56862    2.00000
    4    -11.16121    2.00000
    5     -9.68127    2.00000
    6     -9.11430    2.00000
    7     -8.58918    2.00000
    8     -7.84671    2.00000
    9     -6.07222    2.00000
   10     -0.63316    0.00000
   11     -0.10209    0.00000
   12      0.17753    0.00000
   13      0.28905    0.00000
   14      0.30568    0.00000
   15      0.49297    0.00000

Fermi level: -3.35269

Gap: 5.439 eV
Transition (v -> c):
  (s=0, k=0, n=9, [0.00, 0.00, 0.00]) -> (s=0, k=0, n=10, [0.00, 0.00, 0.00])

Forces in eV/Ang:
  0 H     0.01275   -0.01077   -0.01827
  1 H     0.00411   -0.00312    0.02764
  2 H    -0.01071    0.02458   -0.00466
  3 H    -0.00212    0.00064    0.00984
  4 H     0.04139    0.01890   -0.01124
  5 C    -0.06789    0.00477    0.04163
  6 O    -0.00405    0.02244    0.00557
  7 C     0.01697    0.00079   -0.01142
  8 H    -0.01157    0.01087    0.00983

System changes: positions 

Initializing position-dependent things.

Density initialized from wave functions
          .-------------------------------------.  
         /|                                     |  
        / |                                     |  
       /  |                                     |  
      /   |                                     |  
     /    |                                     |  
    /     |                                     |  
   /      |                                     |  
  /       |                                     |  
 *        |                                     |  
 |        |                                     |  
 |        |                                     |  
 |        |         H  O                        |  
 |        |                  H                  |  
 |        |            HC  CH                   |  
 |        |           H     H                   |  
 |        |                                     |  
 |        |                                     |  
 |        .-------------------------------------.  
 |       /                                     /   
 |      /                                     /    
 |     /                                     /     
 |    /                                     /      
 |   /                                     /       
 |  /                                     /        
 | /                                     /         
 |/                                     /          
 *-------------------------------------*           

Positions:
   0 H      9.220411    6.936668    6.004721    ( 0.0000,  0.0000,  0.0000)
   1 H      9.456249    7.557917    7.662834    ( 0.0000,  0.0000,  0.0000)
   2 H      8.704763    8.594996    6.423917    ( 0.0000,  0.0000,  0.0000)
   3 H      6.748311    7.021763    6.288401    ( 0.0000,  0.0000,  0.0000)
   4 H      5.992479    7.519706    8.451256    ( 0.0000,  0.0000,  0.0000)
   5 C      7.412049    7.030547    7.177660    ( 0.0000,  0.0000,  0.0000)
   6 O      6.874086    7.876215    8.200041    ( 0.0000,  0.0000,  0.0000)
   7 C      8.776683    7.561208    6.796379    ( 0.0000,  0.0000,  0.0000)
   8 H      7.501499    5.985514    7.539603    ( 0.0000,  0.0000,  0.0000)

Unit cell:
           periodic     x           y           z      points  spacing
  1. axis:    no    15.451200    0.000000    0.000000    72     0.2146
  2. axis:    no     0.000000   14.584700    0.000000    70     0.2084
  3. axis:    no     0.000000    0.000000   14.417300    70     0.2060

  Lengths:  15.451200  14.584700  14.417300
  Angles:   90.000000  90.000000  90.000000

Effective grid spacing dv^(1/3) = 0.2096

                     log10-error:    total        iterations:
           time      wfs    density  energy       poisson
iter:   1  10:23:30  -3.94          -44.949716           
iter:   2  10:23:33  -5.32  -3.15   -44.949716           
iter:   3  10:23:37  -5.27  -3.16   -44.949685           
iter:   4  10:23:40  -6.04  -3.55   -44.949685           
iter:   5  10:23:44  -5.66  -3.66   -44.949687           
iter:   6  10:23:47  -5.84  -3.72   -44.949682           
iter:   7  10:23:50  -6.95  -4.11   -44.949682           
iter:   8  10:23:54  -7.09  -4.08   -44.949682           
iter:   9  10:23:57  -7.78  -4.65   -44.949682           

Converged after 9 iterations.

Dipole moment: (-0.130689, -0.252102, -0.124682) |e|*Ang

Energy contributions relative to reference atoms: (reference = -4171.049506)

Kinetic:        +33.525338
Potential:      -37.395272
External:        +0.000000
XC:             -40.980906
Entropy (-ST):   +0.000000
Local:           -0.098842
--------------------------
Free energy:    -44.949682
Extrapolated:   -44.949682

 Band  Eigenvalues  Occupancy
    0    -25.48006    2.00000
    1    -18.41948    2.00000
    2    -14.81851    2.00000
    3    -12.57063    2.00000
    4    -11.16062    2.00000
    5     -9.67946    2.00000
    6     -9.11622    2.00000
    7     -8.58352    2.00000
    8     -7.84325    2.00000
    9     -6.07618    2.00000
   10     -0.63279    0.00000
   11     -0.10197    0.00000
   12      0.17743    0.00000
   13      0.28862    0.00000
   14      0.30574    0.00000
   15      0.49302    0.00000

Fermi level: -3.35448

Gap: 5.443 eV
Transition (v -> c):
  (s=0, k=0, n=9, [0.00, 0.00, 0.00]) -> (s=0, k=0, n=10, [0.00, 0.00, 0.00])

Forces in eV/Ang:
  0 H     0.01481   -0.00057   -0.01152
  1 H     0.00240   -0.01536    0.02222
  2 H    -0.01506    0.01510   -0.01453
  3 H    -0.00075   -0.00617    0.02648
  4 H     0.03207    0.01148   -0.01222
  5 C    -0.02524    0.01974    0.03038
  6 O    -0.01289    0.03737    0.01541
  7 C     0.00230    0.00936    0.00353
  8 H    -0.02194    0.01929    0.00028

System changes: positions 

Initializing position-dependent things.

Density initialized from wave functions
          .-------------------------------------.  
         /|                                     |  
        / |                                     |  
       /  |                                     |  
      /   |                                     |  
     /    |                                     |  
    /     |                                     |  
   /      |                                     |  
  /       |                                     |  
 *        |                                     |  
 |        |                                     |  
 |        |                                     |  
 |        |         H  O                        |  
 |        |                  H                  |  
 |        |            HC  CH                   |  
 |        |           H     H                   |  
 |        |                                     |  
 |        |                                     |  
 |        .-------------------------------------.  
 |       /                                     /   
 |      /                                     /    
 |     /                                     /     
 |    /                                     /      
 |   /                                     /       
 |  /                                     /        
 | /                                     /         
 |/                                     /          
 *-------------------------------------*           

Positions:
   0 H      9.219634    6.936121    6.004593    ( 0.0000,  0.0000,  0.0000)
   1 H      9.455504    7.558922    7.664065    ( 0.0000,  0.0000,  0.0000)
   2 H      8.704441    8.596181    6.425225    ( 0.0000,  0.0000,  0.0000)
   3 H      6.748096    7.022120    6.287825    ( 0.0000,  0.0000,  0.0000)
   4 H      5.993950    7.524269    8.454035    ( 0.0000,  0.0000,  0.0000)
   5 C      7.410392    7.031413    7.178682    ( 0.0000,  0.0000,  0.0000)
   6 O      6.874588    7.879575    8.200103    ( 0.0000,  0.0000,  0.0000)
   7 C      8.776150    7.561553    6.796792    ( 0.0000,  0.0000,  0.0000)
   8 H      7.501083    5.986301    7.541271    ( 0.0000,  0.0000,  0.0000)

Unit cell:
           periodic     x           y           z      points  spacing
  1. axis:    no    15.451200    0.000000    0.000000    72     0.2146
  2. axis:    no     0.000000   14.584700    0.000000    70     0.2084
  3. axis:    no     0.000000    0.000000   14.417300    70     0.2060

  Lengths:  15.451200  14.584700  14.417300
  Angles:   90.000000  90.000000  90.000000

Effective grid spacing dv^(1/3) = 0.2096

                     log10-error:    total        iterations:
           time      wfs    density  energy       poisson
iter:   1  10:24:03  -3.79          -44.949924           
iter:   2  10:24:07  -5.17  -3.13   -44.949923           
iter:   3  10:24:10  -5.33  -3.14   -44.949879           
iter:   4  10:24:13  -5.81  -3.39   -44.949874           
iter:   5  10:24:17  -5.64  -3.53   -44.949876           
iter:   6  10:24:20  -5.78  -3.81   -44.949871           
iter:   7  10:24:24  -6.90  -4.04   -44.949871           
iter:   8  10:24:27  -6.95  -4.00   -44.949871           
iter:   9  10:24:31  -6.97  -4.17   -44.949870           
iter:  10  10:24:34  -8.14  -4.70   -44.949870           

Converged after 10 iterations.

Dipole moment: (-0.131350, -0.251971, -0.123129) |e|*Ang

Energy contributions relative to reference atoms: (reference = -4171.049506)

Kinetic:        +33.414225
Potential:      -37.312504
External:        +0.000000
XC:             -40.952494
Entropy (-ST):   +0.000000
Local:           -0.099097
--------------------------
Free energy:    -44.949870
Extrapolated:   -44.949870

 Band  Eigenvalues  Occupancy
    0    -25.48462    2.00000
    1    -18.41399    2.00000
    2    -14.81562    2.00000
    3    -12.57328    2.00000
    4    -11.15741    2.00000
    5     -9.67593    2.00000
    6     -9.11462    2.00000
    7     -8.57862    2.00000
    8     -7.84290    2.00000
    9     -6.08125    2.00000
   10     -0.63184    0.00000
   11     -0.10176    0.00000
   12      0.17702    0.00000
   13      0.28801    0.00000
   14      0.30576    0.00000
   15      0.49307    0.00000

Fermi level: -3.35654

Gap: 5.449 eV
Transition (v -> c):
  (s=0, k=0, n=9, [0.00, 0.00, 0.00]) -> (s=0, k=0, n=10, [0.00, 0.00, 0.00])

Forces in eV/Ang:
  0 H     0.00700    0.01718    0.00792
  1 H    -0.00535   -0.02138    0.00777
  2 H    -0.01505   -0.00138   -0.01622
  3 H    -0.00308   -0.00556    0.04571
  4 H     0.00609    0.00131   -0.00515
  5 C     0.01243    0.02927    0.01580
  6 O     0.00349    0.02846   -0.00026
  7 C     0.00239    0.00473    0.00266
  8 H    -0.03299    0.03278    0.00080

System changes: positions 

Initializing position-dependent things.

Density initialized from wave functions
          .-------------------------------------.  
         /|                                     |  
        / |                                     |  
       /  |                                     |  
      /   |                                     |  
     /    |                                     |  
    /     |                                     |  
   /      |                                     |  
  /       |                                     |  
 *        |                                     |  
 |        |                                     |  
 |        |                                     |  
 |        |         H  O                        |  
 |        |                  H                  |  
 |        |            HC  CH                   |  
 |        |           H     H                   |  
 |        |                                     |  
 |        |                                     |  
 |        .-------------------------------------.  
 |       /                                     /   
 |      /                                     /    
 |     /                                     /     
 |    /                                     /      
 |   /                                     /       
 |  /                                     /        
 | /                                     /         
 |/                                     /          
 *-------------------------------------*           

Positions:
   0 H      9.219309    6.936079    6.004623    ( 0.0000,  0.0000,  0.0000)
   1 H      9.454911    7.559196    7.665005    ( 0.0000,  0.0000,  0.0000)
   2 H      8.703959    8.596924    6.425790    ( 0.0000,  0.0000,  0.0000)
   3 H      6.747861    7.022319    6.288378    ( 0.0000,  0.0000,  0.0000)
   4 H      5.995098    7.527119    8.455578    ( 0.0000,  0.0000,  0.0000)
   5 C      7.409380    7.032471    7.179709    ( 0.0000,  0.0000,  0.0000)
   6 O      6.875001    7.882149    8.200083    ( 0.0000,  0.0000,  0.0000)
   7 C      8.775968    7.561801    6.796992    ( 0.0000,  0.0000,  0.0000)
   8 H      7.500171    5.987470    7.542440    ( 0.0000,  0.0000,  0.0000)

Unit cell:
           periodic     x           y           z      points  spacing
  1. axis:    no    15.451200    0.000000    0.000000    72     0.2146
  2. axis:    no     0.000000   14.584700    0.000000    70     0.2084
  3. axis:    no     0.000000    0.000000   14.417300    70     0.2060

  Lengths:  15.451200  14.584700  14.417300
  Angles:   90.000000  90.000000  90.000000

Effective grid spacing dv^(1/3) = 0.2096

                     log10-error:    total        iterations:
           time      wfs    density  energy       poisson
iter:   1  10:24:40  -4.11          -44.950062           
iter:   2  10:24:43  -5.48  -3.30   -44.950062           
iter:   3  10:24:47  -6.26  -3.31   -44.950053           
iter:   4  10:24:50  -5.69  -3.41   -44.950044           
iter:   5  10:24:54  -6.89  -3.77   -44.950043           
iter:   6  10:24:57  -6.87  -3.98   -44.950043           
iter:   7  10:25:01  -7.02  -4.32   -44.950044           
iter:   8  10:25:04  -7.05  -4.15   -44.950043           
iter:   9  10:25:08  -7.97  -4.69   -44.950043           

Converged after 9 iterations.

Dipole moment: (-0.131897, -0.252043, -0.122063) |e|*Ang

Energy contributions relative to reference atoms: (reference = -4171.049506)

Kinetic:        +33.389499
Potential:      -37.293825
External:        +0.000000
XC:             -40.946749
Entropy (-ST):   +0.000000
Local:           -0.098968
--------------------------
Free energy:    -44.950043
Extrapolated:   -44.950043

 Band  Eigenvalues  Occupancy
    0    -25.49092    2.00000
    1    -18.41015    2.00000
    2    -14.81470    2.00000
    3    -12.57725    2.00000
    4    -11.15580    2.00000
    5     -9.67357    2.00000
    6     -9.11512    2.00000
    7     -8.57692    2.00000
    8     -7.84295    2.00000
    9     -6.08368    2.00000
   10     -0.63135    0.00000
   11     -0.10161    0.00000
   12      0.17696    0.00000
   13      0.28783    0.00000
   14      0.30595    0.00000
   15      0.49310    0.00000

Fermi level: -3.35752

Gap: 5.452 eV
Transition (v -> c):
  (s=0, k=0, n=9, [0.00, 0.00, 0.00]) -> (s=0, k=0, n=10, [0.00, 0.00, 0.00])

Forces in eV/Ang:
  0 H     0.00351    0.02237    0.01467
  1 H    -0.00897   -0.02175   -0.00319
  2 H    -0.01174   -0.01314   -0.01448
  3 H    -0.00943   -0.00215    0.04669
  4 H    -0.00953   -0.00280    0.00074
  5 C     0.04264    0.03063   -0.00114
  6 O     0.00870    0.02721   -0.00125
  7 C    -0.00509    0.00769    0.00985
  8 H    -0.03534    0.03274    0.00654

System changes: positions 

Initializing position-dependent things.

Density initialized from wave functions
          .-------------------------------------.  
         /|                                     |  
        / |                                     |  
       /  |                                     |  
      /   |                                     |  
     /    |                                     |  
    /     |                                     |  
   /      |                                     |  
  /       |                                     |  
 *        |                                     |  
 |        |                                     |  
 |        |                                     |  
 |        |         H  O                        |  
 |        |                  H                  |  
 |        |            HC  CH                   |  
 |        |           H     H                   |  
 |        |                                     |  
 |        |                                     |  
 |        .-------------------------------------.  
 |       /                                     /   
 |      /                                     /    
 |     /                                     /     
 |    /                                     /      
 |   /                                     /       
 |  /                                     /        
 | /                                     /         
 |/                                     /          
 *-------------------------------------*           

Positions:
   0 H      9.218720    6.936448    6.004900    ( 0.0000,  0.0000,  0.0000)
   1 H      9.453069    7.559492    7.667302    ( 0.0000,  0.0000,  0.0000)
   2 H      8.702475    8.598457    6.427036    ( 0.0000,  0.0000,  0.0000)
   3 H      6.746797    7.023090    6.291172    ( 0.0000,  0.0000,  0.0000)
   4 H      5.998175    7.534148    8.459138    ( 0.0000,  0.0000,  0.0000)
   5 C      7.407580    7.035837    7.182376    ( 0.0000,  0.0000,  0.0000)
   6 O      6.876203    7.889300    8.200012    ( 0.0000,  0.0000,  0.0000)
   7 C      8.775537    7.562584    6.797586    ( 0.0000,  0.0000,  0.0000)
   8 H      7.496816    5.991476    7.546023    ( 0.0000,  0.0000,  0.0000)

Unit cell:
           periodic     x           y           z      points  spacing
  1. axis:    no    15.451200    0.000000    0.000000    72     0.2146
  2. axis:    no     0.000000   14.584700    0.000000    70     0.2084
  3. axis:    no     0.000000    0.000000   14.417300    70     0.2060

  Lengths:  15.451200  14.584700  14.417300
  Angles:   90.000000  90.000000  90.000000

Effective grid spacing dv^(1/3) = 0.2096

                     log10-error:    total        iterations:
           time      wfs    density  energy       poisson
iter:   1  10:25:13  -3.28          -44.950612           
iter:   2  10:25:17  -4.65  -2.87   -44.950618           
iter:   3  10:25:20  -5.65  -2.87   -44.950590           
iter:   4  10:25:23  -4.65  -2.91   -44.950502           
iter:   5  10:25:27  -5.86  -3.43   -44.950504           
iter:   6  10:25:30  -5.06  -3.45   -44.950514           
iter:   7  10:25:34  -5.31  -3.42   -44.950497           
iter:   8  10:25:37  -6.75  -3.82   -44.950498           
iter:   9  10:25:41  -6.31  -3.78   -44.950495           
iter:  10  10:25:44  -7.76  -4.46   -44.950495           

Converged after 10 iterations.

Dipole moment: (-0.132809, -0.252667, -0.119783) |e|*Ang

Energy contributions relative to reference atoms: (reference = -4171.049506)

Kinetic:        +33.405378
Potential:      -37.304856
External:        +0.000000
XC:             -40.951901
Entropy (-ST):   +0.000000
Local:           -0.099116
--------------------------
Free energy:    -44.950495
Extrapolated:   -44.950495

 Band  Eigenvalues  Occupancy
    0    -25.50421    2.00000
    1    -18.40525    2.00000
    2    -14.81395    2.00000
    3    -12.58638    2.00000
    4    -11.15412    2.00000
    5     -9.66939    2.00000
    6     -9.11784    2.00000
    7     -8.57533    2.00000
    8     -7.84533    2.00000
    9     -6.08699    2.00000
   10     -0.63053    0.00000
   11     -0.10111    0.00000
   12      0.17700    0.00000
   13      0.28761    0.00000
   14      0.30639    0.00000
   15      0.49315    0.00000

Fermi level: -3.35876

Gap: 5.456 eV
Transition (v -> c):
  (s=0, k=0, n=9, [0.00, 0.00, 0.00]) -> (s=0, k=0, n=10, [0.00, 0.00, 0.00])

Forces in eV/Ang:
  0 H    -0.00423    0.03037    0.02707
  1 H    -0.00951   -0.01799   -0.02259
  2 H    -0.00103   -0.03039   -0.01081
  3 H    -0.02516    0.00857    0.03475
  4 H    -0.04031   -0.00811    0.01433
  5 C     0.08529    0.02925   -0.03131
  6 O     0.01625    0.02189   -0.00135
  7 C    -0.02004    0.01407    0.02356
  8 H    -0.03183    0.02296    0.02287

System changes: positions 

Initializing position-dependent things.

Density initialized from wave functions
          .-------------------------------------.  
         /|                                     |  
        / |                                     |  
       /  |                                     |  
      /   |                                     |  
     /    |                                     |  
    /     |                                     |  
   /      |                                     |  
  /       |                                     |  
 *        |                                     |  
 |        |                                     |  
 |        |                                     |  
 |        |         H  O                        |  
 |        |                  H                  |  
 |        |            HC  CH                   |  
 |        |           H     H                   |  
 |        |                                     |  
 |        |                                     |  
 |        .-------------------------------------.  
 |       /                                     /   
 |      /                                     /    
 |     /                                     /     
 |    /                                     /      
 |   /                                     /       
 |  /                                     /        
 | /                                     /         
 |/                                     /          
 *-------------------------------------*           

Positions:
   0 H      9.217932    6.937357    6.005665    ( 0.0000,  0.0000,  0.0000)
   1 H      9.450663    7.559752    7.669613    ( 0.0000,  0.0000,  0.0000)
   2 H      8.700791    8.599776    6.428542    ( 0.0000,  0.0000,  0.0000)
   3 H      6.745036    7.024412    6.295116    ( 0.0000,  0.0000,  0.0000)
   4 H      6.001488    7.542459    8.463472    ( 0.0000,  0.0000,  0.0000)
   5 C      7.406418    7.040145    7.185084    ( 0.0000,  0.0000,  0.0000)
   6 O      6.877760    7.897879    8.199789    ( 0.0000,  0.0000,  0.0000)
[...]

Converged after 10 iterations.

Dipole moment: (-0.137057, -0.249082, -0.122338) |e|*Ang

Energy contributions relative to reference atoms: (reference = -4171.049506)

Kinetic:        +33.602545
Potential:      -37.450075
External:        +0.000000
XC:             -41.003234
Entropy (-ST):   +0.000000
Local:           -0.102816
--------------------------
Free energy:    -44.953579
Extrapolated:   -44.953579

 Band  Eigenvalues  Occupancy
    0    -25.49737    2.00000
    1    -18.41126    2.00000
    2    -14.82123    2.00000
    3    -12.57950    2.00000
    4    -11.16631    2.00000
    5     -9.67297    2.00000
    6     -9.11603    2.00000
    7     -8.59424    2.00000
    8     -7.83600    2.00000
    9     -6.07496    2.00000
   10     -0.63231    0.00000
   11     -0.10127    0.00000
   12      0.17803    0.00000
   13      0.28893    0.00000
   14      0.30449    0.00000
   15      0.49322    0.00000

Fermi level: -3.35364

Gap: 5.443 eV
Transition (v -> c):
  (s=0, k=0, n=9, [0.00, 0.00, 0.00]) -> (s=0, k=0, n=10, [0.00, 0.00, 0.00])

Forces in eV/Ang:
  0 H    -0.00421   -0.00164   -0.00278
  1 H    -0.00163    0.00722    0.00253
  2 H     0.00454    0.00421    0.00399
  3 H    -0.00354   -0.00882    0.00390
  4 H    -0.00215   -0.00518   -0.00283
  5 C     0.00956    0.00107   -0.00621
  6 O    -0.00182    0.00334    0.00061
  7 C    -0.01796    0.00109    0.00938
  8 H    -0.01113    0.00069   -0.00395

System changes: positions 

Initializing position-dependent things.

Density initialized from wave functions
          .-------------------------------------.  
         /|                                     |  
        / |                                     |  
       /  |                                     |  
      /   |                                     |  
     /    |                                     |  
    /     |                                     |  
   /      |                                     |  
  /       |                                     |  
 *        |                                     |  
 |        |                                     |  
 |        |                                     |  
 |        |         H  O                        |  
 |        |                  H                  |  
 |        |            HC  CH                   |  
 |        |           H     H                   |  
 |        |                                     |  
 |        |                                     |  
 |        .-------------------------------------.  
 |       /                                     /   
 |      /                                     /    
 |     /                                     /     
 |    /                                     /      
 |   /                                     /       
 |  /                                     /        
 | /                                     /         
 |/                                     /          
 *-------------------------------------*           

Positions:
   0 H      9.192698    6.942556    6.025688    ( 0.0000,  0.0000,  0.0000)
   1 H      9.444940    7.569768    7.679089    ( 0.0000,  0.0000,  0.0000)
   2 H      8.693021    8.608355    6.435919    ( 0.0000,  0.0000,  0.0000)
   3 H      6.718664    7.056625    6.332712    ( 0.0000,  0.0000,  0.0000)
   4 H      5.987660    7.584097    8.490171    ( 0.0000,  0.0000,  0.0000)
   5 C      7.391624    7.064177    7.214244    ( 0.0000,  0.0000,  0.0000)
   6 O      6.874100    7.922349    8.234212    ( 0.0000,  0.0000,  0.0000)
   7 C      8.759788    7.576610    6.816383    ( 0.0000,  0.0000,  0.0000)
   8 H      7.470994    6.021506    7.583812    ( 0.0000,  0.0000,  0.0000)

Unit cell:
           periodic     x           y           z      points  spacing
  1. axis:    no    15.451200    0.000000    0.000000    72     0.2146
  2. axis:    no     0.000000   14.584700    0.000000    70     0.2084
  3. axis:    no     0.000000    0.000000   14.417300    70     0.2060

  Lengths:  15.451200  14.584700  14.417300
  Angles:   90.000000  90.000000  90.000000

Effective grid spacing dv^(1/3) = 0.2096

                     log10-error:    total        iterations:
           time      wfs    density  energy       poisson
iter:   1  10:40:04  -5.40          -44.953592           
iter:   2  10:40:07  -6.78  -3.86   -44.953592           
iter:   3  10:40:11  -7.45  -3.86   -44.953591           
iter:   4  10:40:14  -6.40  -3.95   -44.953590           
iter:   5  10:40:18  -8.00  -4.30   -44.953590           

Converged after 5 iterations.

Dipole moment: (-0.136974, -0.249123, -0.122708) |e|*Ang

Energy contributions relative to reference atoms: (reference = -4171.049506)

Kinetic:        +33.605137
Potential:      -37.452379
External:        +0.000000
XC:             -41.003473
Entropy (-ST):   +0.000000
Local:           -0.102875
--------------------------
Free energy:    -44.953590
Extrapolated:   -44.953590

 Band  Eigenvalues  Occupancy
    0    -25.49696    2.00000
    1    -18.41182    2.00000
    2    -14.82106    2.00000
    3    -12.57917    2.00000
    4    -11.16595    2.00000
    5     -9.67421    2.00000
    6     -9.11549    2.00000
    7     -8.59385    2.00000
    8     -7.83725    2.00000
    9     -6.07445    2.00000
   10     -0.63245    0.00000
   11     -0.10130    0.00000
   12      0.17799    0.00000
   13      0.28896    0.00000
   14      0.30444    0.00000
   15      0.49322    0.00000

Fermi level: -3.35345

Gap: 5.442 eV
Transition (v -> c):
  (s=0, k=0, n=9, [0.00, 0.00, 0.00]) -> (s=0, k=0, n=10, [0.00, 0.00, 0.00])

Forces in eV/Ang:
  0 H    -0.00484   -0.00038   -0.00104
  1 H    -0.00216    0.00641    0.00232
  2 H     0.00352    0.00411    0.00363
  3 H    -0.00383   -0.00760    0.00307
  4 H    -0.00177   -0.00367   -0.00217
  5 C     0.00749   -0.00113   -0.00602
  6 O    -0.00177    0.00309   -0.00039
  7 C    -0.01465   -0.00189    0.00601
  8 H    -0.01011    0.00094   -0.00325

System changes: positions 

Initializing position-dependent things.

Density initialized from wave functions
          .-------------------------------------.  
         /|                                     |  
        / |                                     |  
       /  |                                     |  
      /   |                                     |  
     /    |                                     |  
    /     |                                     |  
   /      |                                     |  
  /       |                                     |  
 *        |                                     |  
 |        |                                     |  
 |        |                                     |  
 |        |         H  O                        |  
 |        |                  H                  |  
 |        |            HC  CH                   |  
 |        |           H     H                   |  
 |        |                                     |  
 |        |                                     |  
 |        .-------------------------------------.  
 |       /                                     /   
 |      /                                     /    
 |     /                                     /     
 |    /                                     /      
 |   /                                     /       
 |  /                                     /        
 | /                                     /         
 |/                                     /          
 *-------------------------------------*           

Positions:
   0 H      9.190934    6.942304    6.026289    ( 0.0000,  0.0000,  0.0000)
   1 H      9.444871    7.570932    7.679249    ( 0.0000,  0.0000,  0.0000)
   2 H      8.693417    8.608803    6.436438    ( 0.0000,  0.0000,  0.0000)
   3 H      6.717612    7.057134    6.334152    ( 0.0000,  0.0000,  0.0000)
   4 H      5.986745    7.583405    8.489502    ( 0.0000,  0.0000,  0.0000)
   5 C      7.391267    7.064540    7.215086    ( 0.0000,  0.0000,  0.0000)
   6 O      6.873770    7.922051    8.235875    ( 0.0000,  0.0000,  0.0000)
   7 C      8.758940    7.576935    6.817053    ( 0.0000,  0.0000,  0.0000)
   8 H      7.470049    6.021578    7.583901    ( 0.0000,  0.0000,  0.0000)

Unit cell:
           periodic     x           y           z      points  spacing
  1. axis:    no    15.451200    0.000000    0.000000    72     0.2146
  2. axis:    no     0.000000   14.584700    0.000000    70     0.2084
  3. axis:    no     0.000000    0.000000   14.417300    70     0.2060

  Lengths:  15.451200  14.584700  14.417300
  Angles:   90.000000  90.000000  90.000000

Effective grid spacing dv^(1/3) = 0.2096

                     log10-error:    total        iterations:
           time      wfs    density  energy       poisson
iter:   1  10:40:23  -4.37          -44.953627           
iter:   2  10:40:27  -5.76  -3.31   -44.953626           
iter:   3  10:40:30  -6.31  -3.31   -44.953617           
iter:   4  10:40:34  -5.57  -3.43   -44.953611           
iter:   5  10:40:37  -7.21  -3.81   -44.953610           
iter:   6  10:40:41  -6.24  -3.93   -44.953609           
iter:   7  10:40:44  -7.81  -4.30   -44.953609           

Converged after 7 iterations.

Dipole moment: (-0.137073, -0.248967, -0.123560) |e|*Ang

Energy contributions relative to reference atoms: (reference = -4171.049506)

Kinetic:        +33.612114
Potential:      -37.458561
External:        +0.000000
XC:             -41.004439
Entropy (-ST):   +0.000000
Local:           -0.102721
--------------------------
Free energy:    -44.953609
Extrapolated:   -44.953609

 Band  Eigenvalues  Occupancy
    0    -25.49727    2.00000
    1    -18.41238    2.00000
    2    -14.82034    2.00000
    3    -12.57852    2.00000
    4    -11.16358    2.00000
    5     -9.67826    2.00000
    6     -9.11414    2.00000
    7     -8.59079    2.00000
    8     -7.84231    2.00000
    9     -6.07435    2.00000
   10     -0.63277    0.00000
   11     -0.10147    0.00000
   12      0.17799    0.00000
   13      0.28903    0.00000
   14      0.30441    0.00000
   15      0.49325    0.00000

Fermi level: -3.35356

Gap: 5.442 eV
Transition (v -> c):
  (s=0, k=0, n=9, [0.00, 0.00, 0.00]) -> (s=0, k=0, n=10, [0.00, 0.00, 0.00])

Forces in eV/Ang:
  0 H    -0.00080    0.00187    0.00027
  1 H    -0.00545   -0.00053    0.00146
  2 H    -0.00352   -0.00022    0.00182
  3 H    -0.00180   -0.00443    0.00010
  4 H    -0.00170    0.00209    0.00304
  5 C     0.00062    0.00283    0.00030
  6 O    -0.00814   -0.00518   -0.00722
  7 C    -0.00126    0.00102    0.00015
  8 H    -0.00550    0.00156   -0.00192

System changes: positions 

Initializing position-dependent things.

Density initialized from wave functions
          .-------------------------------------.  
         /|                                     |  
        / |                                     |  
       /  |                                     |  
      /   |                                     |  
     /    |                                     |  
    /     |                                     |  
   /      |                                     |  
  /       |                                     |  
 *        |                                     |  
 |        |                                     |  
 |        |                                     |  
 |        |         H  O                        |  
 |        |                  H                  |  
 |        |            HC  CH                   |  
 |        |           H     H                   |  
 |        |                                     |  
 |        |                                     |  
 |        .-------------------------------------.  
 |       /                                     /   
 |      /                                     /    
 |     /                                     /     
 |    /                                     /      
 |   /                                     /       
 |  /                                     /        
 | /                                     /         
 |/                                     /          
 *-------------------------------------*           

Positions:
   0 H      9.191121    6.942991    6.026588    ( 0.0000,  0.0000,  0.0000)
   1 H      9.444053    7.571267    7.679692    ( 0.0000,  0.0000,  0.0000)
   2 H      8.692494    8.608954    6.436972    ( 0.0000,  0.0000,  0.0000)
   3 H      6.716859    7.057084    6.334617    ( 0.0000,  0.0000,  0.0000)
   4 H      5.986182    7.583930    8.489957    ( 0.0000,  0.0000,  0.0000)
   5 C      7.390710    7.064423    7.215400    ( 0.0000,  0.0000,  0.0000)
   6 O      6.873516    7.921755    8.236430    ( 0.0000,  0.0000,  0.0000)
   7 C      8.758349    7.577107    6.817396    ( 0.0000,  0.0000,  0.0000)
   8 H      7.469198    6.021243    7.583713    ( 0.0000,  0.0000,  0.0000)

Unit cell:
           periodic     x           y           z      points  spacing
  1. axis:    no    15.451200    0.000000    0.000000    72     0.2146
  2. axis:    no     0.000000   14.584700    0.000000    70     0.2084
  3. axis:    no     0.000000    0.000000   14.417300    70     0.2060

  Lengths:  15.451200  14.584700  14.417300
  Angles:   90.000000  90.000000  90.000000

Effective grid spacing dv^(1/3) = 0.2096

                     log10-error:    total        iterations:
           time      wfs    density  energy       poisson
iter:   1  10:40:50  -4.85          -44.953635           
iter:   2  10:40:53  -6.27  -3.56   -44.953635           
iter:   3  10:40:57  -7.03  -3.56   -44.953632           
iter:   4  10:41:00  -6.06  -3.65   -44.953628           
iter:   5  10:41:04  -7.31  -4.12   -44.953628           
iter:   6  10:41:07  -7.01  -4.14   -44.953628           
iter:   7  10:41:10  -7.52  -4.32   -44.953628           

Converged after 7 iterations.

Dipole moment: (-0.137290, -0.248577, -0.123580) |e|*Ang

Energy contributions relative to reference atoms: (reference = -4171.049506)

Kinetic:        +33.614380
Potential:      -37.460022
External:        +0.000000
XC:             -41.005111
Entropy (-ST):   +0.000000
Local:           -0.102874
--------------------------
Free energy:    -44.953628
Extrapolated:   -44.953628

 Band  Eigenvalues  Occupancy
    0    -25.49749    2.00000
    1    -18.41202    2.00000
    2    -14.82144    2.00000
    3    -12.57945    2.00000
    4    -11.16283    2.00000
    5     -9.67784    2.00000
    6     -9.11421    2.00000
    7     -8.59071    2.00000
    8     -7.84234    2.00000
    9     -6.07419    2.00000
   10     -0.63272    0.00000
   11     -0.10143    0.00000
   12      0.17806    0.00000
   13      0.28895    0.00000
   14      0.30447    0.00000
   15      0.49324    0.00000

Fermi level: -3.35345

Gap: 5.441 eV
Transition (v -> c):
  (s=0, k=0, n=9, [0.00, 0.00, 0.00]) -> (s=0, k=0, n=10, [0.00, 0.00, 0.00])

Forces in eV/Ang:
  0 H    -0.00252    0.00180    0.00148
  1 H    -0.00456   -0.00098    0.00359
  2 H    -0.00450    0.00191    0.00135
  3 H    -0.00146   -0.00331   -0.00155
  4 H    -0.00202    0.00119    0.00295
  5 C     0.00012   -0.00134   -0.00324
  6 O    -0.00399   -0.00364   -0.00816
  7 C    -0.00101   -0.00349   -0.00233
  8 H    -0.00331    0.00172   -0.00084

Timing:                                      incl.     excl.
-------------------------------------------------------------------
Density initialized from wave functions:    24.973    24.972   1.6% ||
 Symmetrize density:                         0.001     0.001   0.0% |
Forces:                                     53.057    53.057   3.4% ||
Hamiltonian:                                52.439     0.698   0.0% |
 Atomic:                                     6.694     0.042   0.0% |
  XC Correction:                             6.651     6.651   0.4% |
 Calculate atomic Hamiltonians:              8.300     8.300   0.5% |
 Communicate:                                0.000     0.000   0.0% |
 Initialize Hamiltonian:                     0.001     0.001   0.0% |
 Poisson:                                    0.358     0.358   0.0% |
 XC 3D grid:                                36.388    36.388   2.4% ||
LCAO initialization:                         0.269     0.073   0.0% |
 LCAO eigensolver:                           0.015     0.000   0.0% |
  Calculate projections:                     0.000     0.000   0.0% |
  DenseAtomicCorrection:                     0.000     0.000   0.0% |
  Distribute overlap matrix:                 0.000     0.000   0.0% |
  Orbital Layouts:                           0.000     0.000   0.0% |
  Potential matrix:                          0.014     0.014   0.0% |
 LCAO to grid:                               0.159     0.159   0.0% |
 Set positions (LCAO WFS):                   0.023     0.004   0.0% |
  Basic WFS set positions:                   0.000     0.000   0.0% |
  Basis functions set positions:             0.000     0.000   0.0% |
  P tci:                                     0.014     0.014   0.0% |
  ST tci:                                    0.003     0.003   0.0% |
  mktci:                                     0.002     0.002   0.0% |
PWDescriptor:                                0.013     0.013   0.0% |
Redistribute:                                0.019     0.019   0.0% |
SCF-cycle:                                1368.830     0.218   0.0% |
 Davidson:                                 682.537    84.608   5.5% |-|
  Apply H:                                 131.684   130.786   8.5% |--|
   HMM T:                                    0.898     0.898   0.1% |
  Subspace diag:                           144.128     0.048   0.0% |
   calc_h_matrix:                          136.188     4.425   0.3% |
    Apply H:                               131.762   130.829   8.5% |--|
     HMM T:                                  0.933     0.933   0.1% |
   diagonalize:                              0.089     0.089   0.0% |
   rotate_psi:                               7.803     7.803   0.5% |
  calc. matrices:                          306.607    42.939   2.8% ||
   Apply H:                                263.668   261.867  17.0% |------|
    HMM T:                                   1.801     1.801   0.1% |
  diagonalize:                               0.318     0.318   0.0% |
  rotate_psi:                               15.193    15.193   1.0% |
 Density:                                  227.246     0.008   0.0% |
  Atomic density matrices:                   0.331     0.331   0.0% |
  Mix:                                     155.660   155.660  10.1% |---|
  Multipole moments:                         0.099     0.099   0.0% |
  Pseudo density:                           71.148    71.140   4.6% |-|
   Symmetrize density:                       0.008     0.008   0.0% |
 Hamiltonian:                              456.344     6.007   0.4% |
  Atomic:                                   58.316     0.370   0.0% |
   XC Correction:                           57.946    57.946   3.8% |-|
  Calculate atomic Hamiltonians:            72.506    72.506   4.7% |-|
  Communicate:                               0.003     0.003   0.0% |
  Poisson:                                   3.038     3.038   0.2% |
  XC 3D grid:                              316.475   316.475  20.5% |-------|
 Orthonormalize:                             2.485     0.005   0.0% |
  calc_s_matrix:                             0.373     0.373   0.0% |
  inverse-cholesky:                          0.012     0.012   0.0% |
  projections:                               1.826     1.826   0.1% |
  rotate_psi_s:                              0.269     0.269   0.0% |
Set symmetry:                                0.000     0.000   0.0% |
Other:                                      40.817    40.817   2.6% ||
-------------------------------------------------------------------
Total:                                              1540.418 100.0%

Date: Wed Jun 30 10:41:12 2021
