
  ___ ___ ___ _ _ _  
 |   |   |_  | | | | 
 | | | | | . | | | | 
 |__ |  _|___|_____|  21.6.0
 |___|_|             

User:   hanguo02@comput119.ghddi.org
Date:   Wed Jul  7 23:54:54 2021
Arch:   x86_64
Pid:    5692
Python: 3.6.8
gpaw:   /home/hanguo02/.local/lib/python3.6/site-packages/gpaw
_gpaw:  /home/hanguo02/.local/lib/python3.6/site-packages/
        _gpaw.cpython-36m-x86_64-linux-gnu.so
ase:    /home/hanguo02/.local/lib/python3.6/site-packages/ase (version 3.22.0)
numpy:  /usr/lib64/python3.6/site-packages/numpy (version 1.16.2)
scipy:  /usr/lib64/python3.6/site-packages/scipy (version 1.2.1)
libxc:  4.2.0
units:  Angstrom and eV
cores: 32
OpenMP: False
OMP_NUM_THREADS: 1

Input parameters:
  mode: {ecut: 400.0,
         gammacentered: False,
         name: pw}
  xc: PBE

System changes: positions, numbers, cell, pbc, initial_charges, initial_magmoms 

Initialize ...

H-setup:
  name: Hydrogen
  id: d65de229564ff8ea4db303e23b6d1ecf
  Z: 1.0
  valence: 1
  core: 0
  charge: 0.0
  file: /home/hanguo02/Software/GPAW/gpaw-setups-0.9.20000/H.PBE.gz
  compensation charges: gauss, rc=0.15, lmax=2
  cutoffs: 0.85(filt), 0.53(core),
  valence states:
                energy  radius
    1s(1.00)    -6.494   0.476
    *s          20.717   0.476
    *p           0.000   0.476

  Using partial waves for H as LCAO basis

O-setup:
  name: Oxygen
  id: 32ecd46bf208036f09c70b0ec9a88b78
  Z: 8.0
  valence: 6
  core: 2
  charge: 0.0
  file: /home/hanguo02/Software/GPAW/gpaw-setups-0.9.20000/O.PBE.gz
  compensation charges: gauss, rc=0.21, lmax=2
  cutoffs: 1.17(filt), 0.83(core),
  valence states:
                energy  radius
    2s(2.00)   -23.961   0.688
    2p(4.00)    -9.029   0.598
    *s           3.251   0.688
    *p          18.182   0.598
    *d           0.000   0.619

  Using partial waves for O as LCAO basis

N-setup:
  name: Nitrogen
  id: f7500608b86eaa90eef8b1d9a670dc53
  Z: 7.0
  valence: 5
  core: 2
  charge: 0.0
  file: /home/hanguo02/Software/GPAW/gpaw-setups-0.9.20000/N.PBE.gz
  compensation charges: gauss, rc=0.18, lmax=2
  cutoffs: 1.11(filt), 0.96(core),
  valence states:
                energy  radius
    2s(2.00)   -18.583   0.603
    2p(3.00)    -7.089   0.529
    *s           8.629   0.603
    *p          20.123   0.529
    *d           0.000   0.577

  Using partial waves for N as LCAO basis

C-setup:
  name: Carbon
  id: 4aa54d4b901d75f77cc0ea3eec22967b
  Z: 6.0
  valence: 4
  core: 2
  charge: 0.0
  file: /home/hanguo02/Software/GPAW/gpaw-setups-0.9.20000/C.PBE.gz
  compensation charges: gauss, rc=0.20, lmax=2
  cutoffs: 1.14(filt), 1.14(core),
  valence states:
                energy  radius
    2s(2.00)   -13.751   0.635
    2p(2.00)    -5.284   0.635
    *s          13.461   0.635
    *p          21.927   0.635
    *d           0.000   0.635

  Using partial waves for C as LCAO basis

S-setup:
  name: Sulfur
  id: ca434db9faa07220b7a1d8cb6886b7a9
  Z: 16.0
  valence: 6
  core: 10
  charge: 0.0
  file: /home/hanguo02/Software/GPAW/gpaw-setups-0.9.20000/S.PBE.gz
  compensation charges: gauss, rc=0.24, lmax=2
  cutoffs: 1.77(filt), 1.66(core),
  valence states:
                energy  radius
    3s(2.00)   -17.254   0.974
    3p(4.00)    -7.008   0.979
    *s           9.957   0.974
    *p          20.203   0.979
    *d           0.000   0.900

  Using partial waves for S as LCAO basis

Reference energy: -47308.856919

Spin-paired calculation

Convergence criteria:
  Maximum total energy change: 0.0005 eV / electron
  Maximum integral of absolute density change: 0.0001 electrons
  Maximum integral of absolute eigenstate change: 4e-08 eV^2
  Maximum number of iterations: 333

Symmetries present (total): 1

  ( 1  0  0)
  ( 0  1  0)
  ( 0  0  1)

1 k-point (Gamma)
1 k-point in the irreducible part of the Brillouin zone
       k-points in crystal coordinates                weights
   0:     0.00000000    0.00000000    0.00000000          1/1

Wave functions: Plane wave expansion
  Cutoff energy: 400.000 eV
  Number of coefficients: 95053 (reduced to 47527)
  Pulay-stress correction: 0.000000 eV/Ang^3 (de/decut=0.000000)
  Using Numpy's FFT
  ScaLapack parameters: grid=1x1, blocksize=None
  Wavefunction extrapolation:
    Improved wavefunction reuse through dual PAW basis 

Occupation numbers: width=0.000 eV 

Eigensolver
   Davidson(niter=2) 

Densities:
  Coarse grid: 96*84*70 grid
  Fine grid: 192*168*140 grid
  Total Charge: 0.000000 

Density mixing:
  Method: separate
  Backend: pulay
  Linear mixing parameter: 0.05
  Mixing with 5 old densities
  Damping of long wave oscillations: 50 

Hamiltonian:
  XC and Coulomb potentials evaluated on a 192*168*140 grid
  Using the PBE Exchange-Correlation functional
 

XC parameters: PBE with 2 nearest neighbor stencil

Memory estimate:
  Process memory now: 1406.19 MiB
  Calculator: 177.56 MiB
    Density: 11.19 MiB
      Arrays: 3.50 MiB
      Localized functions: 6.34 MiB
      Mixer: 1.35 MiB
    Hamiltonian: 2.48 MiB
      Arrays: 2.29 MiB
      XC: 0.00 MiB
      Poisson: 0.00 MiB
      vbar: 0.19 MiB
    Wavefunctions: 163.89 MiB
      Arrays psit_nG: 73.97 MiB
      Eigensolver: 78.39 MiB
      Projections: 0.01 MiB
      Projectors: 0.36 MiB
      PW-descriptor: 11.15 MiB

Total number of cores used: 32
Domain decomposition: 4 x 4 x 2

Number of atoms: 56
Number of atomic orbitals: 149
Number of bands in calculation: 102
Number of valence electrons: 162
Bands to converge: occupied

... initialized

Initializing position-dependent things.

Density initialized from atomic densities
Creating initial wave functions:
  102 bands from LCAO basis set

            .------------------------------------------------.  
           /|                                                |  
          / |                                                |  
         /  |                                                |  
        /   |                                                |  
       /    |                                                |  
      /     |                                                |  
     /      |                                                |  
    /       |                                                |  
   /        |                  H                             |  
  /         |            H    C C H                          |  
 *          |            C C         H   H                   |  
 |          |         H   H    C N   C                       |  
 |          |             C C   C N  HHC                     |  
 |          |          H   C N              O                |  
 |          |         H N        CH      O                   |  
 |          |   H     H       H    C   C                     |  
 |          | H C      C H               C  H                |  
 |          .-------C----------H--C--------------------------.  
 |         /   O   N                C   C                   /   
 |        /      H H H             H     H                 /    
 |       /                                                /     
 |      /                                                /      
 |     /                                                /       
 |    /                                                /        
 |   /                                                /         
 |  /                                                /          
 | /                                                /           
 |/                                                /            
 *------------------------------------------------*             

Positions:
   0 H     12.001000    6.700700    4.000000    ( 0.0000,  0.0000,  0.0000)
   1 H     14.467400    6.914300    4.162700    ( 0.0000,  0.0000,  0.0000)
   2 H     10.663800    6.177700    6.003200    ( 0.0000,  0.0000,  0.0000)
   3 H     15.594700    6.610600    6.338300    ( 0.0000,  0.0000,  0.0000)
   4 H      8.677700   13.212700    9.617300    ( 0.0000,  0.0000,  0.0000)
   5 H     10.415800   11.553800   10.141800    ( 0.0000,  0.0000,  0.0000)
   6 H      6.435700   10.177800    7.567200    ( 0.0000,  0.0000,  0.0000)
   7 H      6.326800    7.899500    7.956900    ( 0.0000,  0.0000,  0.0000)
   8 H      6.952000    4.111700    5.261700    ( 0.0000,  0.0000,  0.0000)
   9 H      5.334400    4.000000    5.313600    ( 0.0000,  0.0000,  0.0000)
  10 H      6.307300   13.610700    8.958600    ( 0.0000,  0.0000,  0.0000)
  11 H      6.597900   13.259800    7.237100    ( 0.0000,  0.0000,  0.0000)
  12 H      5.374300   12.348000    8.156100    ( 0.0000,  0.0000,  0.0000)
  13 H     11.956700    4.921300    9.099200    ( 0.0000,  0.0000,  0.0000)
  14 H     10.538300    5.338700    8.234700    ( 0.0000,  0.0000,  0.0000)
  15 H      5.907900    6.144000    4.008100    ( 0.0000,  0.0000,  0.0000)
  16 H      5.908800    7.635300    4.982900    ( 0.0000,  0.0000,  0.0000)
  17 H      4.417700    6.876300    7.335300    ( 0.0000,  0.0000,  0.0000)
  18 H      4.000000    5.175200    7.017100    ( 0.0000,  0.0000,  0.0000)
  19 H      7.201300    5.654500    8.047900    ( 0.0000,  0.0000,  0.0000)
  20 H      8.138500    5.999400    6.580700    ( 0.0000,  0.0000,  0.0000)
  21 H     12.329200    8.126900   10.828400    ( 0.0000,  0.0000,  0.0000)
  22 H     12.988700    8.305800    9.198100    ( 0.0000,  0.0000,  0.0000)
  23 H     13.223000    5.689800   10.793400    ( 0.0000,  0.0000,  0.0000)
  24 H     14.343700    7.027900   11.029800    ( 0.0000,  0.0000,  0.0000)
  25 O     14.903900    4.621800    9.118700    ( 0.0000,  0.0000,  0.0000)
  26 O     15.763500    6.979000    8.877000    ( 0.0000,  0.0000,  0.0000)
  27 N      9.286400    7.331500    8.403200    ( 0.0000,  0.0000,  0.0000)
  28 N     10.422600    9.071900    9.493300    ( 0.0000,  0.0000,  0.0000)
  29 O      4.231100    6.396200    5.291400    ( 0.0000,  0.0000,  0.0000)
  30 C     10.341400    7.800300    9.081700    ( 0.0000,  0.0000,  0.0000)
  31 C     12.498000    6.553600    4.955900    ( 0.0000,  0.0000,  0.0000)
  32 C     13.881000    6.676500    5.046800    ( 0.0000,  0.0000,  0.0000)
  33 C     11.746800    6.250100    6.092600    ( 0.0000,  0.0000,  0.0000)
  34 C     14.512700    6.504300    6.276900    ( 0.0000,  0.0000,  0.0000)
  35 C      8.545500   12.183800    9.289600    ( 0.0000,  0.0000,  0.0000)
  36 C      7.410300   11.806000    8.576500    ( 0.0000,  0.0000,  0.0000)
  37 C     12.365600    6.057400    7.340600    ( 0.0000,  0.0000,  0.0000)
  38 C     13.759400    6.200100    7.421300    ( 0.0000,  0.0000,  0.0000)
  39 C      9.534700   11.240200    9.585700    ( 0.0000,  0.0000,  0.0000)
  40 C      8.273100    8.164400    8.113400    ( 0.0000,  0.0000,  0.0000)
  41 C      7.300100   10.476900    8.157000    ( 0.0000,  0.0000,  0.0000)
  42 C      9.432800    9.914100    9.184500    ( 0.0000,  0.0000,  0.0000)
  43 C      8.302600    9.519900    8.470100    ( 0.0000,  0.0000,  0.0000)
  44 N      7.150500    7.659700    7.409100    ( 0.0000,  0.0000,  0.0000)
  45 N     11.381600    6.924000    9.404000    ( 0.0000,  0.0000,  0.0000)
  46 N      6.145200    4.322400    5.849400    ( 0.0000,  0.0000,  0.0000)
  47 C      6.363700   12.814500    8.208900    ( 0.0000,  0.0000,  0.0000)
  48 C     11.507600    5.752700    8.542200    ( 0.0000,  0.0000,  0.0000)
  49 C      5.646300    6.572200    4.980800    ( 0.0000,  0.0000,  0.0000)
  50 C      4.582200    6.030600    6.659800    ( 0.0000,  0.0000,  0.0000)
  51 C      7.203100    6.224700    7.109600    ( 0.0000,  0.0000,  0.0000)
  52 C     12.592800    7.575400    9.915900    ( 0.0000,  0.0000,  0.0000)
  53 C      6.043800    5.757900    6.234400    ( 0.0000,  0.0000,  0.0000)
  54 C     13.653000    6.573100   10.310300    ( 0.0000,  0.0000,  0.0000)
  55 S     14.655100    6.042200    8.955300    ( 0.0000,  0.0000,  0.0000)

Unit cell:
           periodic     x           y           z      points  spacing
  1. axis:    no    19.763500    0.000000    0.000000    96     0.2059
  2. axis:    no     0.000000   17.610700    0.000000    84     0.2097
  3. axis:    no     0.000000    0.000000   15.029800    70     0.2147

  Lengths:  19.763500  17.610700  15.029800
  Angles:   90.000000  90.000000  90.000000

Effective grid spacing dv^(1/3) = 0.2100

                     log10-error:    total        iterations:
           time      wfs    density  energy       poisson
iter:   1  23:55:35                -361.804546           
iter:   2  23:56:01  -0.79  -0.72  -358.554534           
iter:   3  23:56:27  -0.69  -0.73  -339.776083           
iter:   4  23:56:53  -1.43  -1.03  -338.482363           
iter:   5  23:57:19  -1.46  -1.13  -337.452982           
iter:   6  23:57:45  -1.26  -1.46  -338.385542           
iter:   7  23:58:11  -2.11  -1.41  -337.133462           
iter:   8  23:58:37  -1.87  -1.67  -336.841598           
iter:   9  23:59:03  -2.77  -2.08  -336.786010           
iter:  10  23:59:29  -3.14  -2.17  -336.780095           
iter:  11  23:59:55  -3.10  -2.35  -336.772708           
iter:  12  00:00:21  -3.93  -2.52  -336.765046           
iter:  13  00:00:46  -4.69  -2.74  -336.766243           
iter:  14  00:01:12  -4.78  -2.74  -336.764280           
iter:  15  00:01:39  -4.90  -2.85  -336.763610           
iter:  16  00:02:04  -5.04  -2.93  -336.763846           
iter:  17  00:02:29  -5.77  -2.99  -336.763605           
iter:  18  00:02:55  -4.97  -3.06  -336.763398           
iter:  19  00:03:21  -5.03  -3.25  -336.763845           
iter:  20  00:03:48  -4.87  -3.18  -336.763529           
iter:  21  00:04:13  -6.40  -3.49  -336.763504           
iter:  22  00:04:40  -5.36  -3.56  -336.763612           
iter:  23  00:05:05  -5.25  -3.48  -336.763499           
iter:  24  00:05:29  -6.58  -3.87  -336.763476           
iter:  25  00:05:55  -7.03  -4.17  -336.763475           
iter:  26  00:06:21  -6.62  -4.24  -336.763481           
iter:  27  00:06:46  -6.92  -4.09  -336.763473           
iter:  28  00:07:12  -7.87  -4.44  -336.763473           

Converged after 28 iterations.

Dipole moment: (-1.008431, 0.476080, -0.273616) |e|*Ang

Energy contributions relative to reference atoms: (reference = -47308.856919)

Kinetic:       +257.225214
Potential:     -262.368071
External:        +0.000000
XC:            -331.047982
Entropy (-ST):   +0.000000
Local:           -0.572633
--------------------------
Free energy:   -336.763473
Extrapolated:  -336.763473

 Band  Eigenvalues  Occupancy
    0    -27.21650    2.00000
    1    -25.87006    2.00000
    2    -25.00277    2.00000
    3    -24.51317    2.00000
    4    -23.84661    2.00000
    5    -22.98356    2.00000
    6    -21.91649    2.00000
    7    -21.62090    2.00000
    8    -21.29481    2.00000
    9    -20.74334    2.00000
   10    -19.72849    2.00000
   11    -19.19119    2.00000
   12    -18.94612    2.00000
   13    -18.54474    2.00000
   14    -18.35374    2.00000
   15    -17.99021    2.00000
   16    -17.17076    2.00000
   17    -16.87926    2.00000
   18    -16.78091    2.00000
   19    -16.32704    2.00000
   20    -16.19445    2.00000
   21    -15.70024    2.00000
   22    -15.36228    2.00000
   23    -14.78092    2.00000
   24    -14.52596    2.00000
   25    -14.19376    2.00000
   26    -13.91448    2.00000
   27    -13.43544    2.00000
   28    -13.19462    2.00000
   29    -12.92844    2.00000
   30    -12.35395    2.00000
   31    -12.31105    2.00000
   32    -12.06957    2.00000
   33    -12.02191    2.00000
   34    -11.90131    2.00000
   35    -11.66011    2.00000
   36    -11.54765    2.00000
   37    -11.38088    2.00000
   38    -11.18882    2.00000
   39    -10.98078    2.00000
   40    -10.80494    2.00000
   41    -10.71356    2.00000
   42    -10.59058    2.00000
   43    -10.40403    2.00000
   44    -10.32889    2.00000
   45    -10.23633    2.00000
   46    -10.11479    2.00000
   47    -10.02081    2.00000
   48     -9.90040    2.00000
   49     -9.79619    2.00000
   50     -9.69774    2.00000
   51     -9.61520    2.00000
   52     -9.51411    2.00000
   53     -9.44897    2.00000
   54     -9.34190    2.00000
   55     -9.29736    2.00000
   56     -8.95386    2.00000
   57     -8.89234    2.00000
   58     -8.77377    2.00000
   59     -8.51752    2.00000
   60     -8.36239    2.00000
   61     -8.23784    2.00000
   62     -8.18673    2.00000
   63     -7.98521    2.00000
   64     -7.93039    2.00000
   65     -7.52831    2.00000
   66     -7.21471    2.00000
   67     -7.15430    2.00000
   68     -7.11818    2.00000
   69     -6.74366    2.00000
   70     -6.61157    2.00000
   71     -6.47071    2.00000
   72     -6.30370    2.00000
   73     -6.10758    2.00000
   74     -5.93352    2.00000
   75     -5.82918    2.00000
   76     -5.52092    2.00000
   77     -5.39055    2.00000
   78     -5.06484    2.00000
   79     -4.97998    2.00000
   80     -4.57420    2.00000
   81     -1.93782    0.00000
   82     -1.46134    0.00000
   83     -1.11411    0.00000
   84     -0.74132    0.00000
   85     -0.45036    0.00000
   86     -0.14716    0.00000
   87     -0.06027    0.00000
   88      0.01746    0.00000
   89      0.08289    0.00000
   90      0.24033    0.00000
   91      0.27364    0.00000
   92      0.39426    0.00000
   93      0.50596    0.00000
   94      0.56937    0.00000
   95      0.63057    0.00000
   96      0.72266    0.00000
   97      0.77329    0.00000
   98      0.85095    0.00000
   99      0.88396    0.00000
  100      0.94192    0.00000
  101      1.03012    0.00000

Fermi level: -3.25601

Gap: 2.636 eV
Transition (v -> c):
  (s=0, k=0, n=80, [0.00, 0.00, 0.00]) -> (s=0, k=0, n=81, [0.00, 0.00, 0.00])

Forces in eV/Ang:
  0 H    -0.12559    0.03325   -0.19725
  1 H     0.16377    0.02998   -0.14788
  2 H    -0.17011   -0.07315    0.13186
  3 H     0.13055    0.06111    0.17814
  4 H    -0.01363    0.22524    0.07171
  5 H     0.20695   -0.05155    0.10303
  6 H    -0.17486   -0.06188   -0.12819
  7 H    -0.81853    0.26101    0.09301
  8 H     0.67637    0.21119   -0.34744
  9 H    -0.54237    0.22960   -0.17183
 10 H     0.02595    0.23287    0.06548
 11 H    -0.05741    0.22325   -0.24913
 12 H    -0.19588   -0.04241   -0.14473
 13 H     0.26371   -0.04499    0.31821
 14 H    -0.17056    0.54359    0.07000
 15 H     0.09848   -0.21261   -0.20970
 16 H     0.12353    0.39629    0.12190
 17 H     0.09495    0.34095    0.28436
 18 H    -0.08706   -0.27766    0.10656
 19 H     0.12906   -0.40578    0.08439
 20 H     0.18123    0.08817    0.07753
 21 H    -0.21428    0.17602   -0.11241
 22 H     0.10501    0.23461   -0.12862
 23 H    -0.11398   -0.20846   -0.00011
 24 H     0.28850    0.08618   -0.09683
 25 O     0.21065   -0.97042    0.26163
 26 O     0.70099    0.39745   -0.18818
 27 N    -1.38718   -0.78627   -1.05287
 28 N     2.04343   -1.05548    0.62555
 29 O     0.26458    0.03051    0.34645
 30 C     0.03283    1.47846    0.34181
 31 C    -0.10174   -0.02538    0.23910
 32 C    -0.03336   -0.14740    0.23945
 33 C     0.43418    0.02740   -0.12542
 34 C    -0.02744    0.01612    0.03684
 35 C     1.17109   -0.88664    0.44250
 36 C    -0.69225   -0.62482   -0.62783
 37 C    -0.38608   -0.14593   -0.48882
 38 C    -0.47944    0.52091   -0.38427
 39 C    -0.34844    1.90294    0.29849
 40 C     0.13403   -1.42517   -0.28511
 41 C     0.29626    0.18223    0.30012
 42 C     0.04015    0.05200    0.17858
 43 C    -1.34446    0.85807   -0.47555
 44 N     1.54335   -0.37179   -0.02188
 45 N    -1.05880    0.45298    0.03909
 46 N     0.34266    0.22829    1.65143
 47 C     0.01826   -0.23587    0.22658
 48 C     0.80835   -0.43538   -0.01255
 49 C    -0.46949    0.35736    0.11391
 50 C    -0.02712   -0.16017   -0.75216
 51 C    -0.50410   -0.24184   -0.08886
 52 C    -0.29375   -0.29276    0.33966
 53 C    -0.44492   -0.49680   -1.04979
 54 C    -0.78729    0.15379    0.32349
 55 S     0.61522   -0.43224   -0.57479

System changes: positions 

Initializing position-dependent things.

Density initialized from wave functions
            .------------------------------------------------.  
           /|                                                |  
          / |                                                |  
         /  |                                                |  
        /   |                                                |  
       /    |                                                |  
      /     |                                                |  
     /      |                                                |  
    /       |                                                |  
   /        |                  H                             |  
  /         |            H    C C H                          |  
 *          |            C C         H   H                   |  
 |          |         H   H    C N   C                       |  
 |          |             CC    C N  HHC                     |  
 |          |          H   C N              O                |  
 |          |         H N        CH      O                   |  
 |          |   H     H       H    C   C                     |  
 |          | H C      C H               C  H                |  
 |          .-------C----------H--C--------------------------.  
 |         /   O   N                C   C                   /   
 |        /      H H H             H     H                 /    
 |       /                                                /     
 |      /                                                /      
 |     /                                                /       
 |    /                                                /        
 |   /                                                /         
 |  /                                                /          
 | /                                                /           
 |/                                                /            
 *------------------------------------------------*             

Positions:
   0 H     11.999206    6.701175    3.997182    ( 0.0000,  0.0000,  0.0000)
   1 H     14.469740    6.914728    4.160587    ( 0.0000,  0.0000,  0.0000)
   2 H     10.661370    6.176655    6.005084    ( 0.0000,  0.0000,  0.0000)
   3 H     15.596565    6.611473    6.340845    ( 0.0000,  0.0000,  0.0000)
   4 H      8.677505   13.215918    9.618324    ( 0.0000,  0.0000,  0.0000)
   5 H     10.418756   11.553064   10.143272    ( 0.0000,  0.0000,  0.0000)
   6 H      6.433202   10.176916    7.565369    ( 0.0000,  0.0000,  0.0000)
   7 H      6.315107    7.903229    7.958229    ( 0.0000,  0.0000,  0.0000)
   8 H      6.961662    4.114717    5.256737    ( 0.0000,  0.0000,  0.0000)
   9 H      5.326652    4.003280    5.311145    ( 0.0000,  0.0000,  0.0000)
  10 H      6.307671   13.614027    8.959535    ( 0.0000,  0.0000,  0.0000)
  11 H      6.597080   13.262989    7.233541    ( 0.0000,  0.0000,  0.0000)
  12 H      5.371502   12.347394    8.154032    ( 0.0000,  0.0000,  0.0000)
  13 H     11.960467    4.920657    9.103746    ( 0.0000,  0.0000,  0.0000)
  14 H     10.535863    5.346466    8.235700    ( 0.0000,  0.0000,  0.0000)
  15 H      5.909307    6.140963    4.005104    ( 0.0000,  0.0000,  0.0000)
  16 H      5.910565    7.640961    4.984641    ( 0.0000,  0.0000,  0.0000)
  17 H      4.419056    6.881171    7.339362    ( 0.0000,  0.0000,  0.0000)
  18 H      3.998756    5.171233    7.018622    ( 0.0000,  0.0000,  0.0000)
  19 H      7.203144    5.648703    8.049106    ( 0.0000,  0.0000,  0.0000)
  20 H      8.141089    6.000660    6.581808    ( 0.0000,  0.0000,  0.0000)
  21 H     12.326139    8.129415   10.826794    ( 0.0000,  0.0000,  0.0000)
  22 H     12.990200    8.309152    9.196263    ( 0.0000,  0.0000,  0.0000)
  23 H     13.221372    5.686822   10.793398    ( 0.0000,  0.0000,  0.0000)
  24 H     14.347821    7.029131   11.028417    ( 0.0000,  0.0000,  0.0000)
  25 O     14.906909    4.607937    9.122438    ( 0.0000,  0.0000,  0.0000)
  26 O     15.773514    6.984678    8.874312    ( 0.0000,  0.0000,  0.0000)
  27 N      9.266583    7.320268    8.388159    ( 0.0000,  0.0000,  0.0000)
  28 N     10.451792    9.056822    9.502236    ( 0.0000,  0.0000,  0.0000)
  29 O      4.234880    6.396636    5.296349    ( 0.0000,  0.0000,  0.0000)
  30 C     10.341869    7.821421    9.086583    ( 0.0000,  0.0000,  0.0000)
  31 C     12.496547    6.553237    4.959316    ( 0.0000,  0.0000,  0.0000)
  32 C     13.880523    6.674394    5.050221    ( 0.0000,  0.0000,  0.0000)
  33 C     11.753003    6.250491    6.090808    ( 0.0000,  0.0000,  0.0000)
  34 C     14.512308    6.504530    6.277426    ( 0.0000,  0.0000,  0.0000)
  35 C      8.562230   12.171134    9.295921    ( 0.0000,  0.0000,  0.0000)
  36 C      7.400411   11.797074    8.567531    ( 0.0000,  0.0000,  0.0000)
  37 C     12.360085    6.055315    7.333617    ( 0.0000,  0.0000,  0.0000)
  38 C     13.752551    6.207542    7.415810    ( 0.0000,  0.0000,  0.0000)
  39 C      9.529722   11.267385    9.589964    ( 0.0000,  0.0000,  0.0000)
  40 C      8.275015    8.144040    8.109327    ( 0.0000,  0.0000,  0.0000)
  41 C      7.304332   10.479503    8.161287    ( 0.0000,  0.0000,  0.0000)
  42 C      9.433374    9.914843    9.187051    ( 0.0000,  0.0000,  0.0000)
  43 C      8.283393    9.532158    8.463306    ( 0.0000,  0.0000,  0.0000)
  44 N      7.172548    7.654389    7.408787    ( 0.0000,  0.0000,  0.0000)
  45 N     11.366474    6.930471    9.404558    ( 0.0000,  0.0000,  0.0000)
  46 N      6.150095    4.325661    5.872992    ( 0.0000,  0.0000,  0.0000)
  47 C      6.363961   12.811130    8.212137    ( 0.0000,  0.0000,  0.0000)
  48 C     11.519148    5.746480    8.542021    ( 0.0000,  0.0000,  0.0000)
  49 C      5.639593    6.577305    4.982427    ( 0.0000,  0.0000,  0.0000)
  50 C      4.581813    6.028312    6.649055    ( 0.0000,  0.0000,  0.0000)
  51 C      7.195899    6.221245    7.108331    ( 0.0000,  0.0000,  0.0000)
  52 C     12.588604    7.571218    9.920752    ( 0.0000,  0.0000,  0.0000)
  53 C      6.037444    5.750803    6.219403    ( 0.0000,  0.0000,  0.0000)
  54 C     13.641753    6.575297   10.314921    ( 0.0000,  0.0000,  0.0000)
  55 S     14.663889    6.036025    8.947089    ( 0.0000,  0.0000,  0.0000)

Unit cell:
           periodic     x           y           z      points  spacing
  1. axis:    no    19.763500    0.000000    0.000000    96     0.2059
  2. axis:    no     0.000000   17.610700    0.000000    84     0.2097
  3. axis:    no     0.000000    0.000000   15.029800    70     0.2147

  Lengths:  19.763500  17.610700  15.029800
  Angles:   90.000000  90.000000  90.000000

Effective grid spacing dv^(1/3) = 0.2100

                     log10-error:    total        iterations:
           time      wfs    density  energy       poisson
iter:   1  00:08:00  -1.85         -337.215043           
iter:   2  00:08:25  -3.19  -2.05  -337.186078           
iter:   3  00:08:51  -2.34  -2.07  -337.083728           
iter:   4  00:09:17  -3.77  -2.50  -337.068568           
iter:   5  00:09:43  -4.07  -2.57  -337.067280           
iter:   6  00:10:08  -3.62  -2.64  -337.063856           
iter:   7  00:10:35  -4.57  -2.89  -337.061945           
iter:   8  00:11:01  -5.15  -3.24  -337.061978           
iter:   9  00:11:27  -5.77  -3.40  -337.062000           
iter:  10  00:11:54  -5.09  -3.40  -337.062108           
iter:  11  00:12:19  -5.77  -3.57  -337.061985           
iter:  12  00:12:45  -6.10  -3.81  -337.061982           
iter:  13  00:13:11  -7.15  -3.96  -337.061984           
iter:  14  00:13:36  -6.69  -4.25  -337.061986           
iter:  15  00:14:02  -6.90  -4.22  -337.061981           
iter:  16  00:14:29  -7.99  -4.76  -337.061981           

Converged after 16 iterations.

Dipole moment: (-1.043474, 0.462001, -0.319651) |e|*Ang

Energy contributions relative to reference atoms: (reference = -47308.856919)

Kinetic:       +251.814348
Potential:     -258.811006
External:        +0.000000
XC:            -329.485525
Entropy (-ST):   +0.000000
Local:           -0.579798
--------------------------
Free energy:   -337.061981
Extrapolated:  -337.061981

 Band  Eigenvalues  Occupancy
    0    -27.09238    2.00000
    1    -26.09259    2.00000
    2    -24.96290    2.00000
    3    -24.45060    2.00000
    4    -23.88812    2.00000
    5    -22.86625    2.00000
    6    -21.98260    2.00000
    7    -21.54920    2.00000
    8    -21.34626    2.00000
    9    -20.81132    2.00000
   10    -19.64203    2.00000
   11    -19.15089    2.00000
   12    -18.87832    2.00000
   13    -18.56824    2.00000
   14    -18.42084    2.00000
   15    -17.97924    2.00000
   16    -17.15630    2.00000
   17    -16.81120    2.00000
   18    -16.79102    2.00000
   19    -16.33950    2.00000
   20    -16.18242    2.00000
   21    -15.60086    2.00000
   22    -15.26079    2.00000
   23    -14.73580    2.00000
   24    -14.46110    2.00000
   25    -14.17038    2.00000
   26    -13.89765    2.00000
   27    -13.40208    2.00000
   28    -13.17781    2.00000
   29    -12.85620    2.00000
   30    -12.34187    2.00000
   31    -12.27980    2.00000
   32    -12.05721    2.00000
   33    -11.99675    2.00000
   34    -11.86508    2.00000
   35    -11.70347    2.00000
   36    -11.52010    2.00000
   37    -11.36713    2.00000
   38    -11.13237    2.00000
   39    -10.95793    2.00000
   40    -10.80794    2.00000
   41    -10.72247    2.00000
   42    -10.56091    2.00000
   43    -10.37371    2.00000
   44    -10.30339    2.00000
   45    -10.18755    2.00000
   46    -10.10025    2.00000
   47    -10.00084    2.00000
   48     -9.89639    2.00000
   49     -9.78055    2.00000
   50     -9.65883    2.00000
   51     -9.53360    2.00000
   52     -9.46700    2.00000
   53     -9.42195    2.00000
   54     -9.30176    2.00000
   55     -9.29388    2.00000
   56     -8.89849    2.00000
   57     -8.87726    2.00000
   58     -8.79747    2.00000
   59     -8.52648    2.00000
   60     -8.44669    2.00000
   61     -8.22579    2.00000
   62     -8.18773    2.00000
   63     -7.99751    2.00000
   64     -7.78242    2.00000
   65     -7.55401    2.00000
   66     -7.18011    2.00000
   67     -7.14462    2.00000
   68     -7.10233    2.00000
   69     -6.79925    2.00000
   70     -6.61207    2.00000
   71     -6.37197    2.00000
   72     -6.26742    2.00000
   73     -6.11876    2.00000
   74     -5.95269    2.00000
   75     -5.91727    2.00000
   76     -5.56658    2.00000
   77     -5.44017    2.00000
   78     -5.17221    2.00000
   79     -5.10692    2.00000
   80     -4.57626    2.00000
   81     -1.71910    0.00000
   82     -1.46516    0.00000
   83     -1.10823    0.00000
   84     -0.84106    0.00000
   85     -0.47310    0.00000
   86     -0.17078    0.00000
   87     -0.03474    0.00000
   88      0.03123    0.00000
   89      0.09304    0.00000
   90      0.23022    0.00000
   91      0.27763    0.00000
   92      0.39991    0.00000
   93      0.51315    0.00000
   94      0.56690    0.00000
   95      0.62803    0.00000
   96      0.71098    0.00000
   97      0.75655    0.00000
   98      0.82562    0.00000
   99      0.86387    0.00000
  100      0.87173    0.00000
  101      1.00630    0.00000

Fermi level: -3.14768

Gap: 2.857 eV
Transition (v -> c):
  (s=0, k=0, n=80, [0.00, 0.00, 0.00]) -> (s=0, k=0, n=81, [0.00, 0.00, 0.00])

Forces in eV/Ang:
  0 H    -0.04228    0.00637   -0.01459
  1 H     0.03879   -0.02565    0.02464
  2 H     0.09162   -0.05464    0.12020
  3 H     0.04300    0.04868    0.17562
  4 H    -0.04572   -0.11213   -0.02738
  5 H     0.25556    0.10581    0.16847
  6 H     0.02932    0.00220    0.02374
  7 H     0.21251    0.06369   -0.56422
  8 H     0.07277    0.36266    0.12291
  9 H     0.17519    0.42457    0.30813
 10 H     0.05266    0.11349    0.02085
 11 H    -0.10462    0.11381   -0.02653
 12 H    -0.15548   -0.00602   -0.13009
 13 H     0.33185   -0.10746    0.37211
 14 H     0.05748    0.50075    0.10888
 15 H    -0.01232   -0.04904   -0.01049
 16 H     0.09388    0.30114    0.13515
 17 H     0.17473    0.01948    0.03439
 18 H    -0.02018   -0.14228    0.01386
 19 H     0.06093   -0.35530   -0.01924
 20 H     0.00252    0.02731    0.12838
 21 H    -0.21821    0.20203   -0.03638
 22 H    -0.02016    0.00053    0.08844
 23 H    -0.12711   -0.23741    0.03757
 24 H     0.13167    0.02529   -0.17786
 25 O     0.17370   -0.49852    0.14863
 26 O     0.38928    0.05532   -0.21354
 27 N     0.46717   -0.48472    0.02146
 28 N     0.47903    1.10513    0.39507
 29 O    -0.06930    0.14291    0.02604
 30 C    -0.58969   -0.59462   -0.62187
 31 C     0.06469    0.07330   -0.20516
 32 C     0.06119   -0.04781   -0.10399
 33 C    -0.34536   -0.04546   -0.13222
 34 C     0.06559    0.05755    0.02612
 35 C    -0.84651    0.69514   -0.26869
 36 C     0.41606    0.07414    0.21976
 37 C    -0.00349   -0.12141   -0.06657
 38 C    -0.22736    0.35329   -0.23367
 39 C     0.82091   -0.61970    0.29077
 40 C    -0.29811    0.12982   -0.12154
 41 C    -0.77335    0.05952   -0.36406
 42 C     0.17215    0.23560    0.25881
 43 C     0.53665   -0.42067    0.26448
 44 N    -0.39038   -0.34542    0.24210
 45 N    -0.42326    0.02325    0.00088
 46 N     0.15364   -0.48253    0.40931
 47 C    -0.07086   -0.02790   -0.03271
 48 C     0.01304   -0.03825   -0.05773
 49 C    -0.17909    0.18705   -0.34303
 50 C    -0.19133   -0.04487   -0.09276
 51 C    -0.16620   -0.33508   -0.23191
 52 C    -0.37526    0.03658    0.00202
 53 C    -0.06456   -0.03503   -0.32233
 54 C    -0.24064   -0.01033    0.15118
 55 S     0.48230   -0.32982   -0.19615

System changes: positions 

Initializing position-dependent things.

Density initialized from wave functions
            .------------------------------------------------.  
           /|                                                |  
          / |                                                |  
         /  |                                                |  
        /   |                                                |  
       /    |                                                |  
      /     |                                                |  
     /      |                                                |  
    /       |                                                |  
   /        |                  H                             |  
  /         |            H    C C H                          |  
 *          |            C C         H   H                   |  
 |          |         H   H    C N   C                       |  
 |          |             CC    CN   HHC                     |  
 |          |          H   C N              O                |  
 |          |         H N        CH      O                   |  
 |          |   H     H       H    C   C                     |  
 |          | H C      C H               C  H                |  
 |          .-------C----------H--C--------------------------.  
 |         /   O   N                C   C                   /   
 |        /      H H H             H     H                 /    
 |       /                                                /     
 |      /                                                /      
 |     /                                                /       
 |    /                                                /        
 |   /                                                /         
 |  /                                                /          
 | /                                                /           
 |/                                                /            
 *------------------------------------------------*             

Positions:
   0 H     11.998166    6.701385    3.996256    ( 0.0000,  0.0000,  0.0000)
   1 H     14.470872    6.914489    4.160378    ( 0.0000,  0.0000,  0.0000)
   2 H     10.661992    6.175640    6.007209    ( 0.0000,  0.0000,  0.0000)
   3 H     15.597633    6.612362    6.343897    ( 0.0000,  0.0000,  0.0000)
   4 H      8.676831   13.215219    9.618216    ( 0.0000,  0.0000,  0.0000)
   5 H     10.423005   11.554316   10.145949    ( 0.0000,  0.0000,  0.0000)
   6 H      6.432957   10.176718    7.565220    ( 0.0000,  0.0000,  0.0000)
   7 H      6.314987    7.905060    7.950877    ( 0.0000,  0.0000,  0.0000)
   8 H      6.965149    4.120441    5.257132    ( 0.0000,  0.0000,  0.0000)
   9 H      5.327041    4.009917    5.314714    ( 0.0000,  0.0000,  0.0000)
  10 H      6.308485   13.616433    8.960061    ( 0.0000,  0.0000,  0.0000)
  11 H      6.595441   13.265365    7.232261    ( 0.0000,  0.0000,  0.0000)
  12 H      5.368659   12.347156    8.151725    ( 0.0000,  0.0000,  0.0000)
  13 H     11.965965    4.919026    9.109994    ( 0.0000,  0.0000,  0.0000)
  14 H     10.536018    5.355299    8.237443    ( 0.0000,  0.0000,  0.0000)
  15 H      5.909502    6.139510    4.004188    ( 0.0000,  0.0000,  0.0000)
  16 H      5.912300    7.646529    4.986934    ( 0.0000,  0.0000,  0.0000)
  17 H      4.421789    6.882694    7.340880    ( 0.0000,  0.0000,  0.0000)
  18 H      3.998160    5.168269    7.019204    ( 0.0000,  0.0000,  0.0000)
  19 H      7.204450    5.642362    8.049154    ( 0.0000,  0.0000,  0.0000)
  20 H      8.141792    6.001357    6.583844    ( 0.0000,  0.0000,  0.0000)
  21 H     12.322373    8.132819   10.825884    ( 0.0000,  0.0000,  0.0000)
  22 H     12.990312    8.310024    9.196994    ( 0.0000,  0.0000,  0.0000)
  23 H     13.219218    5.682816   10.793910    ( 0.0000,  0.0000,  0.0000)
  24 H     14.350681    7.029794   11.025634    ( 0.0000,  0.0000,  0.0000)
  25 O     14.910055    4.597560    9.125429    ( 0.0000,  0.0000,  0.0000)
  26 O     15.781408    6.986898    8.870706    ( 0.0000,  0.0000,  0.0000)
  27 N      9.267839    7.310758    8.384569    ( 0.0000,  0.0000,  0.0000)
  28 N     10.465859    9.068001    9.509931    ( 0.0000,  0.0000,  0.0000)
  29 O      4.234910    6.398697    5.297982    ( 0.0000,  0.0000,  0.0000)
  30 C     10.333948    7.818763    9.079363    ( 0.0000,  0.0000,  0.0000)
  31 C     12.497054    6.554143    4.957399    ( 0.0000,  0.0000,  0.0000)
  32 C     13.881235    6.673199    5.049686    ( 0.0000,  0.0000,  0.0000)
  33 C     11.749894    6.249972    6.088543    ( 0.0000,  0.0000,  0.0000)
  34 C     14.513101    6.505375    6.277918    ( 0.0000,  0.0000,  0.0000)
  35 C      8.555004   12.177344    9.293889    ( 0.0000,  0.0000,  0.0000)
  36 C      7.403532   11.795781    8.568213    ( 0.0000,  0.0000,  0.0000)
  37 C     12.358613    6.053122    7.330907    ( 0.0000,  0.0000,  0.0000)
  38 C     13.747682    6.214280    7.411207    ( 0.0000,  0.0000,  0.0000)
  39 C      9.539632   11.265950    9.595030    ( 0.0000,  0.0000,  0.0000)
  40 C      8.271444    8.140556    8.106618    ( 0.0000,  0.0000,  0.0000)
  41 C      7.294878   10.480987    8.157429    ( 0.0000,  0.0000,  0.0000)
  42 C      9.435869    9.918248    9.191239    ( 0.0000,  0.0000,  0.0000)
  43 C      8.285754    9.529585    8.465160    ( 0.0000,  0.0000,  0.0000)
  44 N      7.172915    7.648307    7.412008    ( 0.0000,  0.0000,  0.0000)
  45 N     11.356798    6.932458    9.404715    ( 0.0000,  0.0000,  0.0000)
  46 N      6.153454    4.319923    5.884663    ( 0.0000,  0.0000,  0.0000)
  47 C      6.363062   12.809880    8.212526    ( 0.0000,  0.0000,  0.0000)
  48 C     11.522306    5.744353    8.541187    ( 0.0000,  0.0000,  0.0000)
  49 C      5.635420    6.581174    4.978169    ( 0.0000,  0.0000,  0.0000)
  50 C      4.579103    6.027109    6.645017    ( 0.0000,  0.0000,  0.0000)
  51 C      7.191773    6.215784    7.104840    ( 0.0000,  0.0000,  0.0000)
  52 C     12.582403    7.570637    9.922032    ( 0.0000,  0.0000,  0.0000)
  53 C      6.034923    5.748493    6.211137    ( 0.0000,  0.0000,  0.0000)
  54 C     13.635568    6.575723   10.318176    ( 0.0000,  0.0000,  0.0000)
  55 S     14.672735    6.029934    8.942294    ( 0.0000,  0.0000,  0.0000)

Unit cell:
           periodic     x           y           z      points  spacing
  1. axis:    no    19.763500    0.000000    0.000000    96     0.2059
  2. axis:    no     0.000000   17.610700    0.000000    84     0.2097
  3. axis:    no     0.000000    0.000000   15.029800    70     0.2147

  Lengths:  19.763500  17.610700  15.029800
  Angles:   90.000000  90.000000  90.000000

Effective grid spacing dv^(1/3) = 0.2100

                     log10-error:    total        iterations:
           time      wfs    density  energy       poisson
iter:   1  00:15:17  -2.47         -337.212718           
iter:   2  00:15:42  -3.79  -2.41  -337.204278           
iter:   3  00:16:09  -3.10  -2.44  -337.177573           
iter:   4  00:16:36  -4.46  -2.77  -337.177093           
iter:   5  00:17:02  -4.74  -2.79  -337.175931           
iter:   6  00:17:27  -4.16  -2.91  -337.174440           
iter:   7  00:17:52  -5.47  -3.15  -337.174039           
iter:   8  00:18:17  -5.38  -3.34  -337.173975           
iter:   9  00:18:43  -5.93  -3.69  -337.173984           
iter:  10  00:19:09  -5.62  -3.67  -337.173986           
iter:  11  00:19:35  -6.75  -3.89  -337.173962           
iter:  12  00:20:01  -6.57  -4.06  -337.173958           
iter:  13  00:20:27  -6.64  -4.15  -337.173963           
iter:  14  00:20:53  -7.09  -4.22  -337.173958           
iter:  15  00:21:18  -7.56  -4.43  -337.173958           

Converged after 15 iterations.

Dipole moment: (-1.071731, 0.444317, -0.356092) |e|*Ang

Energy contributions relative to reference atoms: (reference = -47308.856919)

Kinetic:       +246.828615
Potential:     -255.178836
External:        +0.000000
XC:            -328.252595
Entropy (-ST):   +0.000000
Local:           -0.571142
--------------------------
Free energy:   -337.173958
Extrapolated:  -337.173958

 Band  Eigenvalues  Occupancy
    0    -27.02444    2.00000
    1    -26.17930    2.00000
    2    -24.91552    2.00000
    3    -24.42663    2.00000
    4    -23.89565    2.00000
    5    -22.79162    2.00000
    6    -22.01737    2.00000
    7    -21.55373    2.00000
    8    -21.34853    2.00000
    9    -20.74762    2.00000
   10    -19.57396    2.00000
   11    -19.13542    2.00000
   12    -18.85222    2.00000
   13    -18.55765    2.00000
   14    -18.37654    2.00000
   15    -17.96616    2.00000
   16    -17.11658    2.00000
   17    -16.83890    2.00000
   18    -16.75334    2.00000
   19    -16.34884    2.00000
   20    -16.14991    2.00000
   21    -15.59572    2.00000
   22    -15.25946    2.00000
   23    -14.74217    2.00000
   24    -14.47018    2.00000
   25    -14.14142    2.00000
   26    -13.89008    2.00000
   27    -13.38742    2.00000
   28    -13.16592    2.00000
   29    -12.81662    2.00000
   30    -12.33740    2.00000
   31    -12.26318    2.00000
   32    -12.06559    2.00000
   33    -11.96868    2.00000
   34    -11.85650    2.00000
   35    -11.67635    2.00000
   36    -11.48783    2.00000
   37    -11.35883    2.00000
   38    -11.12711    2.00000
   39    -10.94031    2.00000
   40    -10.83073    2.00000
   41    -10.72251    2.00000
   42    -10.55412    2.00000
   43    -10.37019    2.00000
   44    -10.29210    2.00000
   45    -10.20726    2.00000
   46    -10.08753    2.00000
   47     -9.98160    2.00000
   48     -9.91588    2.00000
   49     -9.76196    2.00000
   50     -9.64570    2.00000
   51     -9.54808    2.00000
   52     -9.44754    2.00000
   53     -9.38941    2.00000
   54     -9.32062    2.00000
   55     -9.30020    2.00000
   56     -8.88692    2.00000
   57     -8.85620    2.00000
   58     -8.78483    2.00000
   59     -8.51122    2.00000
   60     -8.38491    2.00000
   61     -8.21382    2.00000
   62     -8.18087    2.00000
   63     -7.98455    2.00000
   64     -7.87434    2.00000
   65     -7.55068    2.00000
   66     -7.16322    2.00000
   67     -7.13756    2.00000
   68     -7.09564    2.00000
   69     -6.81066    2.00000
   70     -6.62407    2.00000
   71     -6.37840    2.00000
   72     -6.24091    2.00000
   73     -6.12210    2.00000
   74     -5.96541    2.00000
   75     -5.87685    2.00000
   76     -5.57272    2.00000
   77     -5.47033    2.00000
   78     -5.25576    2.00000
   79     -5.17916    2.00000
   80     -4.54949    2.00000
   81     -1.77293    0.00000
   82     -1.45584    0.00000
   83     -1.11417    0.00000
   84     -0.80306    0.00000
   85     -0.48316    0.00000
   86     -0.17716    0.00000
   87     -0.05559    0.00000
   88      0.00688    0.00000
   89      0.08398    0.00000
   90      0.22962    0.00000
   91      0.27349    0.00000
   92      0.40500    0.00000
   93      0.51373    0.00000
   94      0.57450    0.00000
   95      0.62958    0.00000
   96      0.70501    0.00000
   97      0.75894    0.00000
   98      0.82384    0.00000
   99      0.84740    0.00000
  100      0.86244    0.00000
  101      0.99951    0.00000

Fermi level: -3.16121

Gap: 2.777 eV
Transition (v -> c):
  (s=0, k=0, n=80, [0.00, 0.00, 0.00]) -> (s=0, k=0, n=81, [0.00, 0.00, 0.00])

Forces in eV/Ang:
  0 H    -0.02834    0.01294   -0.03007
  1 H     0.03382   -0.03293    0.02347
  2 H    -0.03298   -0.06061    0.08206
  3 H     0.02391    0.04501    0.17218
  4 H    -0.07756    0.05458   -0.00449
  5 H     0.38542    0.14902    0.24811
  6 H    -0.19282   -0.04367   -0.11855
  7 H     0.12076    0.07782   -0.51358
  8 H    -0.05097    0.33622    0.20550
  9 H     0.26341    0.35736    0.33864
 10 H     0.04137    0.04128   -0.02913
 11 H    -0.11179    0.06741    0.04604
 12 H    -0.10402    0.01006   -0.10759
 13 H     0.25094   -0.00073    0.27580
 14 H     0.04002    0.39618    0.08167
 15 H    -0.05211   -0.00051   -0.03630
 16 H     0.06346    0.19020    0.11111
 17 H     0.17832   -0.08950   -0.04247
 18 H    -0.00999   -0.08952   -0.02502
 19 H     0.01631   -0.31812   -0.12762
 20 H    -0.02017    0.00267    0.10436
 21 H    -0.22500    0.19634   -0.02086
 22 H    -0.08189   -0.07287    0.14021
 23 H    -0.10472   -0.20184    0.03767
 24 H     0.04988    0.00710   -0.18839
 25 O     0.18836   -0.24947    0.07774
 26 O     0.24083   -0.14037   -0.22502
 27 N     0.14481   -0.13764   -0.05773
 28 N    -0.02505    0.22613   -0.10423
 29 O    -0.20175    0.18965   -0.12648
 30 C    -0.14114    0.17694   -0.13623
 31 C     0.00357    0.03941   -0.13158
 32 C     0.07472   -0.01728   -0.12238
 33 C    -0.14466   -0.02983   -0.13043
 34 C     0.02371    0.09108   -0.07924
 35 C     0.03352   -0.04600    0.01697
 36 C     0.04268    0.18244    0.05999
 37 C    -0.04951   -0.05568   -0.04585
 38 C     0.02556    0.20651   -0.07722
 39 C    -0.10137    0.00463   -0.03541
 40 C    -0.00190    0.08481    0.02610
 41 C    -0.00967   -0.23687   -0.01473
 42 C     0.35033    0.06537    0.26741
 43 C     0.17247   -0.20468    0.12907
 44 N    -0.42724   -0.36275    0.13823
 45 N    -0.13334   -0.15414   -0.06313
 46 N     0.12329   -0.41484    0.14583
 47 C    -0.06119    0.06479   -0.06037
 48 C    -0.04764   -0.01105    0.09849
 49 C    -0.06153    0.12594   -0.28469
 50 C    -0.11454    0.00195    0.09589
 51 C    -0.08425   -0.28093   -0.11202
 52 C    -0.32564    0.09992   -0.07300
 53 C     0.01588    0.02235   -0.02107
 54 C    -0.02581   -0.09958    0.01167
 55 S     0.27375   -0.20713   -0.00045

System changes: positions 

Initializing position-dependent things.

Density initialized from wave functions
            .------------------------------------------------.  
           /|                                                |  
          / |                                                |  
         /  |                                                |  
        /   |                                                |  
       /    |                                                |  
      /     |                                                |  
     /      |                                                |  
    /       |                                                |  
   /        |                  H                             |  
  /         |            H    C C H                          |  
 *          |            C C         H   H                   |  
 |          |         H   H    C N   C                       |  
 |          |             CC   C N   HHC                     |  
 |          |          H   C N               O               |  
 |          |         H N        CH      O                   |  
 |          |   H     H       H    C   C                     |  
 |          | H C      C H               C  H                |  
 |          .-------C----------H--C--------------------------.  
 |         /   O   N                C   C                   /   
 |        /      H H H             H     H                 /    
 |       /                                                /     
 |      /                                                /      
 |     /                                                /       
 |    /                                                /        
 |   /                                                /         
 |  /                                                /          
 | /                                                /           
 |/                                                /            
 *------------------------------------------------*             

Positions:
   0 H     11.996657    6.701870    3.994619    ( 0.0000,  0.0000,  0.0000)
   1 H     14.472641    6.913669    4.160474    ( 0.0000,  0.0000,  0.0000)
   2 H     10.661236    6.173526    6.010573    ( 0.0000,  0.0000,  0.0000)
   3 H     15.599068    6.614025    6.349937    ( 0.0000,  0.0000,  0.0000)
   4 H      8.674656   13.216540    9.618205    ( 0.0000,  0.0000,  0.0000)
   5 H     10.434631   11.558306   10.153336    ( 0.0000,  0.0000,  0.0000)
   6 H      6.428066   10.175480    7.562169    ( 0.0000,  0.0000,  0.0000)
   7 H      6.315903    7.908435    7.935205    ( 0.0000,  0.0000,  0.0000)
   8 H      6.967442    4.131807    5.261277    ( 0.0000,  0.0000,  0.0000)
   9 H      5.332079    4.022325    5.324077    ( 0.0000,  0.0000,  0.0000)
  10 H      6.309946   13.619249    8.959842    ( 0.0000,  0.0000,  0.0000)
  11 H      6.591842   13.268735    7.232037    ( 0.0000,  0.0000,  0.0000)
  12 H      5.364248   12.347156    8.147649    ( 0.0000,  0.0000,  0.0000)
  13 H     11.975379    4.917977    9.120519    ( 0.0000,  0.0000,  0.0000)
  14 H     10.536650    5.370521    8.240446    ( 0.0000,  0.0000,  0.0000)
  15 H      5.908642    6.138209    4.002389    ( 0.0000,  0.0000,  0.0000)
  16 H      5.915001    7.654889    4.991032    ( 0.0000,  0.0000,  0.0000)
  17 H      4.427607    6.882267    7.341396    ( 0.0000,  0.0000,  0.0000)
  18 H      3.997405    5.163942    7.019199    ( 0.0000,  0.0000,  0.0000)
  19 H      7.205847    5.630635    8.046467    ( 0.0000,  0.0000,  0.0000)
  20 H      8.142125    6.002007    6.587547    ( 0.0000,  0.0000,  0.0000)
  21 H     12.314648    8.139604   10.824647    ( 0.0000,  0.0000,  0.0000)
  22 H     12.988743    8.309374    9.200320    ( 0.0000,  0.0000,  0.0000)
  23 H     13.215362    5.675491   10.795059    ( 0.0000,  0.0000,  0.0000)
  24 H     14.354071    7.030520   11.019555    ( 0.0000,  0.0000,  0.0000)
  25 O     14.916585    4.583866    9.129470    ( 0.0000,  0.0000,  0.0000)
  26 O     15.792903    6.985838    8.863128    ( 0.0000,  0.0000,  0.0000)
  27 N      9.268872    7.300494    8.378943    ( 0.0000,  0.0000,  0.0000)
  28 N     10.477741    9.077282    9.513320    ( 0.0000,  0.0000,  0.0000)
  29 O      4.230917    6.404249    5.296791    ( 0.0000,  0.0000,  0.0000)
  30 C     10.326272    7.824424    9.072863    ( 0.0000,  0.0000,  0.0000)
  31 C     12.497207    6.555503    4.953827    ( 0.0000,  0.0000,  0.0000)
  32 C     13.883267    6.671805    5.047115    ( 0.0000,  0.0000,  0.0000)
  33 C     11.745759    6.249057    6.084014    ( 0.0000,  0.0000,  0.0000)
  34 C     14.514036    6.507960    6.276482    ( 0.0000,  0.0000,  0.0000)
  35 C      8.554130   12.177962    9.294056    ( 0.0000,  0.0000,  0.0000)
  36 C      7.404807   11.797840    8.568620    ( 0.0000,  0.0000,  0.0000)
  37 C     12.355818    6.050287    7.327264    ( 0.0000,  0.0000,  0.0000)
  38 C     13.744442    6.223949    7.405990    ( 0.0000,  0.0000,  0.0000)
  39 C      9.542270   11.269312    9.597772    ( 0.0000,  0.0000,  0.0000)
  40 C      8.269639    8.137426    8.105045    ( 0.0000,  0.0000,  0.0000)
  41 C      7.289871   10.476854    8.155525    ( 0.0000,  0.0000,  0.0000)
  42 C      9.445337    9.921796    9.200092    ( 0.0000,  0.0000,  0.0000)
  43 C      8.288140    9.525304    8.468132    ( 0.0000,  0.0000,  0.0000)
  44 N      7.166739    7.635790    7.416946    ( 0.0000,  0.0000,  0.0000)
  45 N     11.345952    6.931072    9.403456    ( 0.0000,  0.0000,  0.0000)
  46 N      6.158913    4.307707    5.898208    ( 0.0000,  0.0000,  0.0000)
  47 C      6.361197   12.810128    8.211865    ( 0.0000,  0.0000,  0.0000)
  48 C     11.524770    5.741949    8.542917    ( 0.0000,  0.0000,  0.0000)
  49 C      5.630623    6.587017    4.969511    ( 0.0000,  0.0000,  0.0000)
  50 C      4.574892    6.026120    6.643264    ( 0.0000,  0.0000,  0.0000)
  51 C      7.186415    6.205758    7.100106    ( 0.0000,  0.0000,  0.0000)
  52 C     12.570826    7.571944    9.921838    ( 0.0000,  0.0000,  0.0000)
  53 C      6.032884    5.746611    6.203666    ( 0.0000,  0.0000,  0.0000)
  54 C     13.629747    6.574038   10.321001    ( 0.0000,  0.0000,  0.0000)
  55 S     14.685340    6.020812    8.938302    ( 0.0000,  0.0000,  0.0000)

Unit cell:
           periodic     x           y           z      points  spacing
  1. axis:    no    19.763500    0.000000    0.000000    96     0.2059
  2. axis:    no     0.000000   17.610700    0.000000    84     0.2097
  3. axis:    no     0.000000    0.000000   15.029800    70     0.2147

  Lengths:  19.763500  17.610700  15.029800
  Angles:   90.000000  90.000000  90.000000

Effective grid spacing dv^(1/3) = 0.2100

                     log10-error:    total        iterations:
           time      wfs    density  energy       poisson
iter:   1  00:22:07  -2.43         -337.287379           
iter:   2  00:22:31  -3.72  -2.43  -337.281783           
iter:   3  00:22:56  -3.38  -2.45  -337.257600           
iter:   4  00:23:22  -5.00  -2.78  -337.257969           
iter:   5  00:23:48  -4.61  -2.79  -337.256752           
iter:   6  00:24:13  -4.27  -2.95  -337.255856           
iter:   7  00:24:38  -5.12  -3.14  -337.255457           
iter:   8  00:25:03  -5.42  -3.32  -337.255381           
iter:   9  00:25:28  -5.89  -3.68  -337.255379           
iter:  10  00:25:57  -5.92  -3.67  -337.255357           
iter:  11  00:26:24  -7.21  -4.05  -337.255354           
iter:  12  00:26:48  -6.76  -4.13  -337.255355           
iter:  13  00:27:14  -6.84  -4.15  -337.255354           
iter:  14  00:27:40  -7.80  -4.47  -337.255353           

Converged after 14 iterations.

Dipole moment: (-1.095925, 0.455091, -0.378278) |e|*Ang

Energy contributions relative to reference atoms: (reference = -47308.856919)

Kinetic:       +241.299015
Potential:     -251.130731
External:        +0.000000
XC:            -326.858683
Entropy (-ST):   +0.000000
Local:           -0.564955
--------------------------
Free energy:   -337.255353
Extrapolated:  -337.255353

 Band  Eigenvalues  Occupancy
    0    -26.95377    2.00000
    1    -26.17745    2.00000
    2    -24.88976    2.00000
    3    -24.40397    2.00000
    4    -23.87381    2.00000
    5    -22.76191    2.00000
    6    -22.05069    2.00000
    7    -21.58720    2.00000
    8    -21.32903    2.00000
    9    -20.72048    2.00000
   10    -19.47731    2.00000
   11    -19.10927    2.00000
   12    -18.82662    2.00000
   13    -18.53664    2.00000
   14    -18.36807    2.00000
   15    -17.96540    2.00000
   16    -17.09933    2.00000
   17    -16.85528    2.00000
   18    -16.70995    2.00000
   19    -16.34861    2.00000
   20    -16.12045    2.00000
   21    -15.58727    2.00000
   22    -15.25470    2.00000
   23    -14.74100    2.00000
   24    -14.45761    2.00000
   25    -14.11299    2.00000
   26    -13.87868    2.00000
   27    -13.38089    2.00000
   28    -13.13853    2.00000
   29    -12.79639    2.00000
   30    -12.33946    2.00000
   31    -12.24402    2.00000
   32    -12.05895    2.00000
   33    -11.92322    2.00000
   34    -11.82545    2.00000
   35    -11.65917    2.00000
   36    -11.46488    2.00000
   37    -11.33699    2.00000
   38    -11.10031    2.00000
   39    -10.92405    2.00000
   40    -10.83937    2.00000
   41    -10.71021    2.00000
   42    -10.53946    2.00000
   43    -10.36949    2.00000
   44    -10.30692    2.00000
   45    -10.22270    2.00000
   46    -10.08243    2.00000
   47     -9.97091    2.00000
   48     -9.91871    2.00000
   49     -9.74499    2.00000
   50     -9.62723    2.00000
   51     -9.56919    2.00000
   52     -9.43455    2.00000
   53     -9.35570    2.00000
   54     -9.34748    2.00000
   55     -9.26461    2.00000
   56     -8.88373    2.00000
   57     -8.84808    2.00000
   58     -8.76853    2.00000
   59     -8.50235    2.00000
   60     -8.39271    2.00000
   61     -8.21930    2.00000
   62     -8.17999    2.00000
   63     -7.97735    2.00000
   64     -7.89221    2.00000
   65     -7.54892    2.00000
   66     -7.15675    2.00000
   67     -7.13219    2.00000
   68     -7.08590    2.00000
   69     -6.83795    2.00000
   70     -6.63937    2.00000
   71     -6.38401    2.00000
   72     -6.21086    2.00000
   73     -6.11846    2.00000
   74     -5.97725    2.00000
   75     -5.86875    2.00000
   76     -5.60098    2.00000
   77     -5.48877    2.00000
   78     -5.33596    2.00000
   79     -5.26369    2.00000
   80     -4.53793    2.00000
   81     -1.80364    0.00000
   82     -1.44686    0.00000
   83     -1.11900    0.00000
   84     -0.81583    0.00000
   85     -0.48510    0.00000
   86     -0.17612    0.00000
   87     -0.06538    0.00000
   88      0.00762    0.00000
   89      0.08000    0.00000
   90      0.22710    0.00000
   91      0.27689    0.00000
   92      0.40886    0.00000
   93      0.51285    0.00000
   94      0.57672    0.00000
   95      0.63279    0.00000
   96      0.69563    0.00000
   97      0.75832    0.00000
   98      0.82159    0.00000
   99      0.83953    0.00000
  100      0.86182    0.00000
  101      0.99494    0.00000

Fermi level: -3.17078

Gap: 2.734 eV
Transition (v -> c):
  (s=0, k=0, n=80, [0.00, 0.00, 0.00]) -> (s=0, k=0, n=81, [0.00, 0.00, 0.00])

Forces in eV/Ang:
  0 H    -0.02198    0.02351   -0.07261
  1 H     0.06555   -0.02537   -0.04555
  2 H    -0.15552   -0.06381    0.02246
  3 H    -0.00561    0.04587    0.14052
  4 H    -0.08016    0.04281   -0.01196
  5 H     0.09227    0.09664    0.07364
  6 H    -0.18410   -0.05425   -0.11336
  7 H    -0.25730    0.14027   -0.28284
  8 H    -0.01866    0.22295    0.15162
  9 H     0.14899    0.15633    0.20298
 10 H     0.01674   -0.01150   -0.06570
 11 H    -0.10141    0.05001    0.05417
 12 H    -0.02048    0.04219   -0.07633
 13 H     0.11638    0.13852    0.13082
 14 H    -0.04989    0.21684    0.04250
 15 H    -0.08076    0.03639   -0.12876
 16 H     0.02284    0.03228    0.05859
 17 H     0.14171   -0.11953   -0.05195
 18 H    -0.01169   -0.03344   -0.05923
 19 H    -0.03534   -0.30745   -0.21194
 20 H    -0.01360   -0.03209    0.04659
 21 H    -0.22389    0.14548   -0.03639
 22 H    -0.12444   -0.08087    0.10832
 23 H    -0.04435   -0.10150    0.00847
 24 H    -0.02812   -0.00850   -0.16889
 25 O     0.22166    0.01812    0.01216
 26 O     0.10261   -0.33885   -0.20566
 27 N    -0.02791    0.30999   -0.01728
 28 N    -0.24968   -0.20024   -0.30784
 29 O    -0.20481    0.20514   -0.14434
 30 C     0.24754    0.06572    0.05655
 31 C     0.00002   -0.00198   -0.03773
 32 C    -0.02804    0.00570   -0.09297
 33 C     0.07679   -0.02375   -0.05174
 34 C     0.01579    0.11567   -0.11438
 35 C     0.09992   -0.01417    0.05783
 36 C    -0.10875   -0.10586   -0.08130
 37 C     0.03152    0.03149   -0.00767
 38 C     0.13503   -0.00197    0.07834
 39 C     0.14614    0.12161    0.14642
 40 C    -0.05653   -0.16122   -0.01848
 41 C     0.30644   -0.09307    0.19217
 42 C    -0.03529    0.00513   -0.01833
 43 C     0.14729   -0.00686    0.16766
 44 N     0.13858   -0.23952    0.00934
 45 N     0.07015    0.02572   -0.02035
 46 N     0.08437   -0.00733    0.16101
 47 C    -0.08059    0.10629   -0.03862
 48 C     0.00658    0.00727    0.17333
 49 C    -0.00066    0.03752    0.00400
 50 C     0.03432    0.01128    0.03640
 51 C    -0.02658   -0.13431    0.07713
 52 C    -0.11319   -0.04518   -0.00988
 53 C    -0.00879   -0.04257    0.17860
 54 C     0.06473   -0.12902   -0.12043
 55 S    -0.00738   -0.05295    0.11174

System changes: positions 

Initializing position-dependent things.

Density initialized from wave functions
            .------------------------------------------------.  
           /|                                                |  
          / |                                                |  
         /  |                                                |  
        /   |                                                |  
       /    |                                                |  
      /     |                                                |  
     /      |                                                |  
    /       |                                                |  
   /        |                  H                             |  
  /         |            H    C C H                          |  
 *          |            C C         H   H                   |  
 |          |         H   H    C N   C                       |  
 |          |             C C  C N   HHC                     |  
 |          |          H   C N               O               |  
 |          |         H N        CH      O                   |  
 |          |   H     H       H    C   C                     |  
 |          | H C      C H               C  H                |  
 |          .-------C----------H--C--------------------------.  
 |         /   O   N                C   C                   /   
 |        /      H H H             H     H                 /    
 |       /                                                /     
 |      /                                                /      
 |     /                                                /       
 |    /                                                /        
 |   /                                                /         
 |  /                                                /          
 | /                                                /           
 |/                                                /            
 *------------------------------------------------*             

Positions:
   0 H     11.995308    6.702593    3.992246    ( 0.0000,  0.0000,  0.0000)
   1 H     14.474990    6.912769    4.159537    ( 0.0000,  0.0000,  0.0000)
   2 H     10.658034    6.171114    6.012992    ( 0.0000,  0.0000,  0.0000)
   3 H     15.599846    6.615864    6.356041    ( 0.0000,  0.0000,  0.0000)
   4 H      8.672000   13.217686    9.617927    ( 0.0000,  0.0000,  0.0000)
   5 H     10.442316   11.562178   10.158512    ( 0.0000,  0.0000,  0.0000)
   6 H      6.422417   10.173856    7.558676    ( 0.0000,  0.0000,  0.0000)
   7 H      6.311092    7.913118    7.921171    ( 0.0000,  0.0000,  0.0000)
   8 H      6.969046    4.142462    5.266040    ( 0.0000,  0.0000,  0.0000)
   9 H      5.337136    4.032340    5.332884    ( 0.0000,  0.0000,  0.0000)
  10 H      6.311102   13.620865    8.958610    ( 0.0000,  0.0000,  0.0000)
  11 H      6.587907   13.271785    7.232633    ( 0.0000,  0.0000,  0.0000)
  12 H      5.361238   12.347924    8.143822    ( 0.0000,  0.0000,  0.0000)
  13 H     11.983077    4.919825    9.129170    ( 0.0000,  0.0000,  0.0000)
  14 H     10.535949    5.383522    8.243006    ( 0.0000,  0.0000,  0.0000)
  15 H      5.906757    6.137978    3.998835    ( 0.0000,  0.0000,  0.0000)
  16 H      5.917048    7.660519    4.994509    ( 0.0000,  0.0000,  0.0000)
  17 H      4.433550    6.880189    7.341032    ( 0.0000,  0.0000,  0.0000)
  18 H      3.996692    5.160669    7.018195    ( 0.0000,  0.0000,  0.0000)
  19 H      7.206092    5.617962    8.041207    ( 0.0000,  0.0000,  0.0000)
  20 H      8.142202    6.001836    6.590552    ( 0.0000,  0.0000,  0.0000)
  21 H     12.306001    8.146208   10.823156    ( 0.0000,  0.0000,  0.0000)
  22 H     12.985684    8.307778    9.204004    ( 0.0000,  0.0000,  0.0000)
  23 H     13.212306    5.669367   10.795834    ( 0.0000,  0.0000,  0.0000)
  24 H     14.355719    7.030839   11.012953    ( 0.0000,  0.0000,  0.0000)
  25 O     14.924529    4.575670    9.132216    ( 0.0000,  0.0000,  0.0000)
  26 O     15.801881    6.979353    8.854952    ( 0.0000,  0.0000,  0.0000)
  27 N      9.269121    7.299727    8.375299    ( 0.0000,  0.0000,  0.0000)
  28 N     10.481757    9.080399    9.510895    ( 0.0000,  0.0000,  0.0000)
  29 O      4.225285    6.411145    5.293956    ( 0.0000,  0.0000,  0.0000)
  30 C     10.325753    7.827087    9.069203    ( 0.0000,  0.0000,  0.0000)
  31 C     12.497427    6.556275    4.951084    ( 0.0000,  0.0000,  0.0000)
  32 C     13.883719    6.671004    5.044091    ( 0.0000,  0.0000,  0.0000)
  33 C     11.744709    6.248064    6.080515    ( 0.0000,  0.0000,  0.0000)
  34 C     14.514962    6.511538    6.273794    ( 0.0000,  0.0000,  0.0000)
  35 C      8.553512   12.179872    9.294635    ( 0.0000,  0.0000,  0.0000)
  36 C      7.404114   11.796126    8.567373    ( 0.0000,  0.0000,  0.0000)
  37 C     12.354905    6.049129    7.324852    ( 0.0000,  0.0000,  0.0000)
  38 C     13.744359    6.229769    7.404090    ( 0.0000,  0.0000,  0.0000)
  39 C      9.549319   11.272579    9.603345    ( 0.0000,  0.0000,  0.0000)
  40 C      8.266690    8.131914    8.103220    ( 0.0000,  0.0000,  0.0000)
  41 C      7.291081   10.473854    8.157412    ( 0.0000,  0.0000,  0.0000)
  42 C      9.449089    9.924341    9.204474    ( 0.0000,  0.0000,  0.0000)
  43 C      8.292759    9.522692    8.473218    ( 0.0000,  0.0000,  0.0000)
  44 N      7.167210    7.624247    7.420058    ( 0.0000,  0.0000,  0.0000)
  45 N     11.340120    6.931665    9.402609    ( 0.0000,  0.0000,  0.0000)
  46 N      6.163765    4.301018    5.910322    ( 0.0000,  0.0000,  0.0000)
  47 C      6.358582   12.811956    8.210958    ( 0.0000,  0.0000,  0.0000)
  48 C     11.526840    5.740499    8.546788    ( 0.0000,  0.0000,  0.0000)
  49 C      5.627445    6.591243    4.964895    ( 0.0000,  0.0000,  0.0000)
  50 C      4.573094    6.025586    6.642051    ( 0.0000,  0.0000,  0.0000)
  51 C      7.182516    6.197476    7.098715    ( 0.0000,  0.0000,  0.0000)
  52 C     12.562133    7.571370    9.921963    ( 0.0000,  0.0000,  0.0000)
  53 C      6.031131    5.744311    6.201751    ( 0.0000,  0.0000,  0.0000)
  54 C     13.626849    6.570940   10.320710    ( 0.0000,  0.0000,  0.0000)
  55 S     14.692851    6.014310    8.937486    ( 0.0000,  0.0000,  0.0000)

Unit cell:
           periodic     x           y           z      points  spacing
  1. axis:    no    19.763500    0.000000    0.000000    96     0.2059
  2. axis:    no     0.000000   17.610700    0.000000    84     0.2097
  3. axis:    no     0.000000    0.000000   15.029800    70     0.2147

  Lengths:  19.763500  17.610700  15.029800
  Angles:   90.000000  90.000000  90.000000

Effective grid spacing dv^(1/3) = 0.2100

                     log10-error:    total        iterations:
           time      wfs    density  energy       poisson
iter:   1  00:28:29  -2.74         -337.312684           
iter:   2  00:28:54  -4.07  -2.57  -337.310506           
iter:   3  00:29:20  -3.63  -2.59  -337.300805           
iter:   4  00:29:46  -5.34  -2.91  -337.300795           
iter:   5  00:30:11  -4.94  -2.92  -337.300432           
iter:   6  00:30:38  -4.62  -3.08  -337.299991           
iter:   7  00:31:04  -5.61  -3.33  -337.299851           
iter:   8  00:31:31  -5.82  -3.52  -337.299817           
iter:   9  00:31:56  -6.76  -3.86  -337.299815           
iter:  10  00:32:20  -6.39  -3.87  -337.299813           
iter:  11  00:32:46  -7.71  -4.22  -337.299812           

Converged after 11 iterations.

Dipole moment: (-1.112674, 0.454252, -0.388381) |e|*Ang

Energy contributions relative to reference atoms: (reference = -47308.856919)

Kinetic:       +238.025223
Potential:     -248.695401
External:        +0.000000
XC:            -326.058492
Entropy (-ST):   +0.000000
Local:           -0.571142
--------------------------
Free energy:   -337.299812
Extrapolated:  -337.299812

 Band  Eigenvalues  Occupancy
    0    -26.92933    2.00000
    1    -26.14235    2.00000
    2    -24.89572    2.00000
    3    -24.39457    2.00000
    4    -23.89543    2.00000
    5    -22.76480    2.00000
    6    -22.09484    2.00000
    7    -21.59627    2.00000
    8    -21.31140    2.00000
    9    -20.69399    2.00000
   10    -19.43588    2.00000
   11    -19.08951    2.00000
   12    -18.80808    2.00000
   13    -18.51628    2.00000
   14    -18.34921    2.00000
   15    -17.97237    2.00000
   16    -17.09394    2.00000
   17    -16.85614    2.00000
   18    -16.70393    2.00000
   19    -16.36623    2.00000
   20    -16.10550    2.00000
   21    -15.57951    2.00000
   22    -15.24155    2.00000
   23    -14.73554    2.00000
   24    -14.45830    2.00000
   25    -14.09391    2.00000
   26    -13.87162    2.00000
   27    -13.38555    2.00000
   28    -13.13150    2.00000
   29    -12.79116    2.00000
   30    -12.34997    2.00000
   31    -12.23245    2.00000
   32    -12.06003    2.00000
   33    -11.90504    2.00000
   34    -11.81985    2.00000
   35    -11.64776    2.00000
   36    -11.45232    2.00000
   37    -11.33057    2.00000
   38    -11.09284    2.00000
   39    -10.91807    2.00000
   40    -10.84722    2.00000
   41    -10.71582    2.00000
   42    -10.53027    2.00000
   43    -10.36571    2.00000
   44    -10.31464    2.00000
   45    -10.22663    2.00000
   46    -10.08055    2.00000
   47     -9.95634    2.00000
   48     -9.90820    2.00000
   49     -9.72927    2.00000
   50     -9.62854    2.00000
   51     -9.57406    2.00000
   52     -9.43879    2.00000
   53     -9.36460    2.00000
   54     -9.33243    2.00000
   55     -9.25081    2.00000
   56     -8.89133    2.00000
   57     -8.85993    2.00000
   58     -8.75955    2.00000
   59     -8.49823    2.00000
   60     -8.38099    2.00000
   61     -8.22003    2.00000
   62     -8.17087    2.00000
   63     -7.97393    2.00000
   64     -7.90962    2.00000
   65     -7.54744    2.00000
   66     -7.17121    2.00000
   67     -7.13209    2.00000
   68     -7.08548    2.00000
   69     -6.83270    2.00000
   70     -6.64583    2.00000
   71     -6.37952    2.00000
   72     -6.20408    2.00000
   73     -6.11332    2.00000
   74     -5.98291    2.00000
   75     -5.85745    2.00000
   76     -5.63976    2.00000
   77     -5.50392    2.00000
   78     -5.37868    2.00000
   79     -5.26604    2.00000
   80     -4.53121    2.00000
   81     -1.79379    0.00000
   82     -1.44451    0.00000
   83     -1.11791    0.00000
   84     -0.81522    0.00000
   85     -0.49004    0.00000
   86     -0.18402    0.00000
   87     -0.07431    0.00000
   88      0.00720    0.00000
   89      0.07412    0.00000
   90      0.22439    0.00000
   91      0.27503    0.00000
   92      0.41058    0.00000
   93      0.50870    0.00000
   94      0.57935    0.00000
   95      0.63252    0.00000
   96      0.68954    0.00000
   97      0.75778    0.00000
   98      0.81955    0.00000
   99      0.83440    0.00000
  100      0.85959    0.00000
  101      0.99102    0.00000

Fermi level: -3.16250

Gap: 2.737 eV
Transition (v -> c):
  (s=0, k=0, n=80, [0.00, 0.00, 0.00]) -> (s=0, k=0, n=81, [0.00, 0.00, 0.00])

Forces in eV/Ang:
  0 H    -0.00579    0.02208   -0.06703
  1 H     0.06334   -0.02309   -0.07709
  2 H    -0.09019   -0.05440   -0.00884
  3 H    -0.01440    0.05406    0.09323
  4 H    -0.08338    0.08386   -0.00613
  5 H     0.06741    0.09812    0.05988
  6 H     0.03592   -0.01058    0.03387
  7 H    -0.22570    0.11255   -0.29589
  8 H     0.01455    0.14456    0.11901
  9 H     0.06839    0.01450    0.11828
 10 H    -0.00159   -0.01412   -0.04703
 11 H    -0.08091    0.05386    0.02125
 12 H     0.00531    0.06183   -0.05322
 13 H     0.03685    0.18334    0.06175
 14 H    -0.07596    0.09674    0.03609
 15 H    -0.10600    0.08669   -0.11223
 16 H     0.00141   -0.06898    0.02534
 17 H     0.10468   -0.09936   -0.02622
 18 H    -0.00368    0.02295   -0.08569
 19 H    -0.06216   -0.31845   -0.17961
 20 H    -0.02534   -0.07280    0.01023
 21 H    -0.18995    0.06850   -0.07255
 22 H    -0.13259   -0.06684    0.06477
 23 H     0.01648   -0.01787   -0.02179
 24 H    -0.06696   -0.01820   -0.13957
 25 O     0.20744    0.14674   -0.00675
 26 O     0.04669   -0.38942   -0.15552
 27 N     0.02332    0.28328    0.02051
 28 N    -0.23114   -0.32152   -0.30634
 29 O    -0.10324    0.19372   -0.04122
 30 C     0.19978    0.06626    0.04930
 31 C    -0.03550   -0.02270   -0.03688
 32 C    -0.01170    0.03794   -0.06656
 33 C     0.04515   -0.02954    0.03300
 34 C    -0.02260    0.08756   -0.02996
 35 C     0.23468   -0.19945    0.08764
 36 C    -0.07159   -0.02268   -0.03264
 37 C     0.10907    0.06610    0.06797
 38 C     0.14330   -0.11381    0.08223
 39 C    -0.12319    0.19869    0.02440
 40 C     0.05276   -0.01668    0.09298
 41 C     0.17813   -0.16866    0.09004
 42 C    -0.06152    0.00843   -0.06817
 43 C    -0.08323    0.01483    0.04565
 44 N     0.05886   -0.09119    0.04888
 45 N     0.23268    0.01453    0.00696
 46 N     0.05035    0.19723    0.16056
 47 C    -0.04028   -0.00042   -0.02665
 48 C     0.01098    0.06858    0.09863
 49 C     0.03233   -0.04546    0.11687
 50 C     0.04304   -0.01676   -0.05450
 51 C     0.06810   -0.02859    0.11401
 52 C     0.06504   -0.08087    0.09365
 53 C    -0.04671   -0.00665    0.20746
 54 C     0.03968   -0.12055   -0.12410
 55 S    -0.12869   -0.01468    0.06399

System changes: positions 

Initializing position-dependent things.

Density initialized from wave functions
            .------------------------------------------------.  
           /|                                                |  
          / |                                                |  
         /  |                                                |  
        /   |                                                |  
       /    |                                                |  
      /     |                                                |  
     /      |                                                |  
    /       |                                                |  
   /        |                  H                             |  
  /         |            H    C C H                          |  
 *          |            C C         H   H                   |  
 |          |         H   H    C N   C                       |  
 |          |             C C  C N   HHC                     |  
 |          |          H   C N               O               |  
 |          |         H N        CH      O                   |  
 |          |   H     H       H    C   C                     |  
 |          | H C      C H               C  H                |  
 |          .-------C----------H--C--------------------------.  
 |         /   O   N                C   C                   /   
 |        /      H H H             H     H                 /    
 |       /                                                /     
 |      /                                                /      
 |     /                                                /       
 |    /                                                /        
 |   /                                                /         
 |  /                                                /          
 | /                                                /           
 |/                                                /            
 *------------------------------------------------*             

Positions:
   0 H     11.993810    6.703772    3.988523    ( 0.0000,  0.0000,  0.0000)
   1 H     14.478714    6.911323    4.156962    ( 0.0000,  0.0000,  0.0000)
   2 H     10.653719    6.167480    6.015440    ( 0.0000,  0.0000,  0.0000)
   3 H     15.600417    6.619003    6.364328    ( 0.0000,  0.0000,  0.0000)
   4 H      8.667476   13.220442    9.617473    ( 0.0000,  0.0000,  0.0000)
   5 H     10.452177   11.568429   10.165446    ( 0.0000,  0.0000,  0.0000)
   6 H      6.418870   10.172282    7.556806    ( 0.0000,  0.0000,  0.0000)
   7 H      6.302756    7.920089    7.899125    ( 0.0000,  0.0000,  0.0000)
   8 H      6.971292    4.156789    5.273491    ( 0.0000,  0.0000,  0.0000)
   9 H      5.343774    4.043229    5.344661    ( 0.0000,  0.0000,  0.0000)
  10 H      6.312293   13.622534    8.956599    ( 0.0000,  0.0000,  0.0000)
  11 H      6.582109   13.276302    7.233408    ( 0.0000,  0.0000,  0.0000)
  12 H      5.357978   12.350041    8.138631    ( 0.0000,  0.0000,  0.0000)
  13 H     11.992142    4.925291    9.139886    ( 0.0000,  0.0000,  0.0000)
  14 H     10.533778    5.399406    8.246619    ( 0.0000,  0.0000,  0.0000)
  15 H      5.902520    6.139661    3.993109    ( 0.0000,  0.0000,  0.0000)
  16 H      5.919301    7.665129    4.998749    ( 0.0000,  0.0000,  0.0000)
  17 H      4.441976    6.876238    7.340367    ( 0.0000,  0.0000,  0.0000)
  18 H      3.995896    5.157747    7.015334    ( 0.0000,  0.0000,  0.0000)
  19 H      7.205112    5.597627    8.032429    ( 0.0000,  0.0000,  0.0000)
  20 H      8.141681    6.000033    6.593976    ( 0.0000,  0.0000,  0.0000)
  21 H     12.292999    8.154406   10.819873    ( 0.0000,  0.0000,  0.0000)
  22 H     12.979810    8.304879    9.209065    ( 0.0000,  0.0000,  0.0000)
  23 H     13.209525    5.662593   10.796119    ( 0.0000,  0.0000,  0.0000)
  24 H     14.356193    7.030807   11.003107    ( 0.0000,  0.0000,  0.0000)
  25 O     14.937145    4.569627    9.135187    ( 0.0000,  0.0000,  0.0000)
  26 O     15.812709    6.964834    8.843224    ( 0.0000,  0.0000,  0.0000)
  27 N      9.271770    7.302944    8.372412    ( 0.0000,  0.0000,  0.0000)
  28 N     10.482570    9.079901    9.503460    ( 0.0000,  0.0000,  0.0000)
  29 O      4.217889    6.422378    5.290931    ( 0.0000,  0.0000,  0.0000)
  30 C     10.327037    7.829264    9.064486    ( 0.0000,  0.0000,  0.0000)
  31 C     12.496920    6.556711    4.946892    ( 0.0000,  0.0000,  0.0000)
  32 C     13.884275    6.671021    5.039501    ( 0.0000,  0.0000,  0.0000)
  33 C     11.743191    6.246288    6.077742    ( 0.0000,  0.0000,  0.0000)
  34 C     14.515410    6.516911    6.271074    ( 0.0000,  0.0000,  0.0000)
  35 C      8.555792   12.178778    9.296313    ( 0.0000,  0.0000,  0.0000)
  36 C      7.403571   11.794868    8.566535    ( 0.0000,  0.0000,  0.0000)
  37 C     12.356649    6.049119    7.324083    ( 0.0000,  0.0000,  0.0000)
  38 C     13.746547    6.233766    7.403128    ( 0.0000,  0.0000,  0.0000)
  39 C      9.554661   11.278278    9.609469    ( 0.0000,  0.0000,  0.0000)
  40 C      8.264571    8.127536    8.103624    ( 0.0000,  0.0000,  0.0000)
  41 C      7.292651   10.467037    8.159308    ( 0.0000,  0.0000,  0.0000)
  42 C      9.452175    9.927827    9.208110    ( 0.0000,  0.0000,  0.0000)
  43 C      8.296085    9.519050    8.479355    ( 0.0000,  0.0000,  0.0000)
  44 N      7.166795    7.610590    7.425216    ( 0.0000,  0.0000,  0.0000)
  45 N     11.338676    6.932424    9.402037    ( 0.0000,  0.0000,  0.0000)
  46 N      6.169921    4.297835    5.926844    ( 0.0000,  0.0000,  0.0000)
  47 C      6.355167   12.813070    8.209443    ( 0.0000,  0.0000,  0.0000)
[...]
  6 H     0.01288    0.00969    0.01411
  7 H     0.02243   -0.02467   -0.01998
  8 H     0.00178   -0.00398   -0.00066
  9 H    -0.00374   -0.01312   -0.01693
 10 H    -0.01378    0.00371    0.00878
 11 H    -0.00195    0.00610   -0.00012
 12 H    -0.00350   -0.02269   -0.01226
 13 H    -0.01958    0.01887    0.00914
 14 H     0.01837   -0.00583    0.01529
 15 H     0.01951   -0.01078    0.00007
 16 H     0.00254    0.01551   -0.01746
 17 H    -0.01826    0.01515   -0.00900
 18 H     0.00666   -0.03083    0.01910
 19 H    -0.02222   -0.04558   -0.00303
 20 H    -0.00100   -0.02758    0.02987
 21 H     0.01183    0.00234    0.00353
 22 H     0.00367   -0.00314   -0.01991
 23 H     0.01644    0.01077    0.00648
 24 H    -0.01733    0.00247   -0.01375
 25 O    -0.01381    0.03447    0.01851
 26 O     0.00284   -0.00788   -0.00057
 27 N    -0.03139    0.00737   -0.01041
 28 N     0.01443    0.01716   -0.00844
 29 O     0.00779   -0.03411    0.02955
 30 C    -0.01373   -0.02419   -0.01507
 31 C     0.00341   -0.00087    0.00825
 32 C    -0.00435    0.00715    0.01002
 33 C    -0.02509   -0.02755    0.02487
 34 C    -0.00513    0.02008    0.03012
 35 C    -0.02010    0.01460   -0.02034
 36 C    -0.00284   -0.02782   -0.00808
 37 C     0.03513    0.02313    0.01971
 38 C     0.01134    0.00328    0.04849
 39 C     0.00217    0.01485    0.00260
 40 C     0.00250    0.02677    0.00562
 41 C    -0.00862   -0.01129   -0.01059
 42 C     0.01624    0.00914   -0.00297
 43 C    -0.00660    0.01278   -0.00038
 44 N     0.00132   -0.00768    0.02728
 45 N     0.00792   -0.00891    0.00112
 46 N    -0.00030    0.00095   -0.00612
 47 C     0.00448   -0.01600    0.00464
 48 C     0.02422    0.00308   -0.03215
 49 C    -0.00066    0.00569   -0.00365
 50 C    -0.01189   -0.01395    0.01565
 51 C     0.00251    0.00619    0.01592
 52 C     0.02408    0.00486    0.01046
 53 C    -0.00619    0.00629    0.00181
 54 C    -0.01003    0.00636   -0.00439
 55 S    -0.01264    0.01737    0.01829

System changes: positions 

Initializing position-dependent things.

Density initialized from wave functions
            .------------------------------------------------.  
           /|                                                |  
          / |                                                |  
         /  |                                                |  
        /   |                                                |  
       /    |                                                |  
      /     |                                                |  
     /      |                                                |  
    /       |                                                |  
   /        |                  H                             |  
  /         |            H    C C H                          |  
 *          |            C C         H   H                   |  
 |          |         H   H    C N   C                       |  
 |          |             CC    C N  HHC                     |  
 |          |          H   C N               O               |  
 |          |         H N        CH      O                   |  
 |          |   H     H        H   C   C                     |  
 |          | H C      C H               C  H                |  
 |          .---O--C-H---------H--C--------------------------.  
 |         /       N                C   C                   /   
 |        /      H H H             H     H                 /    
 |       /                                                /     
 |      /                                                /      
 |     /                                                /       
 |    /                                                /        
 |   /                                                /         
 |  /                                                /          
 | /                                                /           
 |/                                                /            
 *------------------------------------------------*             

Positions:
   0 H     12.008317    6.661180    3.995856    ( 0.0000,  0.0000,  0.0000)
   1 H     14.485696    6.939630    4.157167    ( 0.0000,  0.0000,  0.0000)
   2 H     10.689160    6.106616    6.031436    ( 0.0000,  0.0000,  0.0000)
   3 H     15.617925    6.660944    6.368938    ( 0.0000,  0.0000,  0.0000)
   4 H      8.616026   13.233868    9.607419    ( 0.0000,  0.0000,  0.0000)
   5 H     10.424450   11.612615   10.145384    ( 0.0000,  0.0000,  0.0000)
   6 H      6.373893   10.142064    7.639407    ( 0.0000,  0.0000,  0.0000)
   7 H      6.301804    8.087850    7.551326    ( 0.0000,  0.0000,  0.0000)
   8 H      7.018460    4.166207    5.439455    ( 0.0000,  0.0000,  0.0000)
   9 H      5.380867    3.982359    5.428393    ( 0.0000,  0.0000,  0.0000)
  10 H      6.260013   13.611579    8.940960    ( 0.0000,  0.0000,  0.0000)
  11 H      6.584310   13.285758    7.228885    ( 0.0000,  0.0000,  0.0000)
  12 H      5.330541   12.357885    8.080901    ( 0.0000,  0.0000,  0.0000)
  13 H     12.005162    4.965344    9.186442    ( 0.0000,  0.0000,  0.0000)
  14 H     10.550714    5.418248    8.275828    ( 0.0000,  0.0000,  0.0000)
  15 H      5.817487    6.184551    4.028488    ( 0.0000,  0.0000,  0.0000)
  16 H      6.005154    7.662930    5.054820    ( 0.0000,  0.0000,  0.0000)
  17 H      4.440750    6.828649    7.471078    ( 0.0000,  0.0000,  0.0000)
  18 H      3.928169    5.182405    6.964395    ( 0.0000,  0.0000,  0.0000)
  19 H      7.158882    5.541798    8.054493    ( 0.0000,  0.0000,  0.0000)
  20 H      8.104718    5.939407    6.620592    ( 0.0000,  0.0000,  0.0000)
  21 H     12.305351    8.147321   10.822184    ( 0.0000,  0.0000,  0.0000)
  22 H     13.006383    8.337963    9.224442    ( 0.0000,  0.0000,  0.0000)
  23 H     13.251409    5.669849   10.780764    ( 0.0000,  0.0000,  0.0000)
  24 H     14.398182    7.030281   10.971466    ( 0.0000,  0.0000,  0.0000)
  25 O     15.002742    4.560288    9.196707    ( 0.0000,  0.0000,  0.0000)
  26 O     15.860690    6.915587    8.817251    ( 0.0000,  0.0000,  0.0000)
  27 N      9.286627    7.313120    8.393849    ( 0.0000,  0.0000,  0.0000)
  28 N     10.493188    9.106766    9.479430    ( 0.0000,  0.0000,  0.0000)
  29 O      4.217169    6.565566    5.376140    ( 0.0000,  0.0000,  0.0000)
  30 C     10.350816    7.849691    9.060732    ( 0.0000,  0.0000,  0.0000)
  31 C     12.517991    6.519779    4.952874    ( 0.0000,  0.0000,  0.0000)
  32 C     13.902292    6.671151    5.041372    ( 0.0000,  0.0000,  0.0000)
  33 C     11.777371    6.202534    6.089774    ( 0.0000,  0.0000,  0.0000)
  34 C     14.540277    6.507753    6.269055    ( 0.0000,  0.0000,  0.0000)
  35 C      8.520365   12.186650    9.297290    ( 0.0000,  0.0000,  0.0000)
  36 C      7.367089   11.788383    8.577799    ( 0.0000,  0.0000,  0.0000)
  37 C     12.394043    6.015100    7.334655    ( 0.0000,  0.0000,  0.0000)
  38 C     13.787420    6.176569    7.400259    ( 0.0000,  0.0000,  0.0000)
  39 C      9.528231   11.296762    9.604775    ( 0.0000,  0.0000,  0.0000)
  40 C      8.258479    8.124709    8.148253    ( 0.0000,  0.0000,  0.0000)
  41 C      7.259310   10.452976    8.208816    ( 0.0000,  0.0000,  0.0000)
  42 C      9.441546    9.940640    9.208541    ( 0.0000,  0.0000,  0.0000)
  43 C      8.269989    9.518491    8.518864    ( 0.0000,  0.0000,  0.0000)
  44 N      7.193548    7.581770    7.483784    ( 0.0000,  0.0000,  0.0000)
  45 N     11.378358    6.964638    9.383676    ( 0.0000,  0.0000,  0.0000)
  46 N      6.167462    4.318557    6.017617    ( 0.0000,  0.0000,  0.0000)
  47 C      6.329832   12.806820    8.191610    ( 0.0000,  0.0000,  0.0000)
  48 C     11.553303    5.757040    8.566863    ( 0.0000,  0.0000,  0.0000)
  49 C      5.620366    6.624893    5.022381    ( 0.0000,  0.0000,  0.0000)
  50 C      4.544849    6.053467    6.685007    ( 0.0000,  0.0000,  0.0000)
  51 C      7.161167    6.173394    7.146396    ( 0.0000,  0.0000,  0.0000)
  52 C     12.592543    7.582814    9.922010    ( 0.0000,  0.0000,  0.0000)
  53 C      5.997973    5.750697    6.255265    ( 0.0000,  0.0000,  0.0000)
  54 C     13.659086    6.569355   10.295589    ( 0.0000,  0.0000,  0.0000)
  55 S     14.736351    5.979171    8.934740    ( 0.0000,  0.0000,  0.0000)

Unit cell:
           periodic     x           y           z      points  spacing
  1. axis:    no    19.763500    0.000000    0.000000    96     0.2059
  2. axis:    no     0.000000   17.610700    0.000000    84     0.2097
  3. axis:    no     0.000000    0.000000   15.029800    70     0.2147

  Lengths:  19.763500  17.610700  15.029800
  Angles:   90.000000  90.000000  90.000000

Effective grid spacing dv^(1/3) = 0.2100

                     log10-error:    total        iterations:
           time      wfs    density  energy       poisson
iter:   1  02:39:16  -3.85         -337.541745           
iter:   2  02:39:41  -5.19  -3.15  -337.541654           
iter:   3  02:40:05  -5.00  -3.16  -337.541166           
iter:   4  02:40:32  -6.53  -3.46  -337.541152           
iter:   5  02:40:59  -5.76  -3.49  -337.541105           
iter:   6  02:41:25  -6.03  -3.80  -337.541093           
iter:   7  02:41:50  -6.92  -3.93  -337.541085           
iter:   8  02:42:16  -6.89  -4.05  -337.541082           
iter:   9  02:42:42  -7.85  -4.40  -337.541082           

Converged after 9 iterations.

Dipole moment: (-1.274286, 0.382983, -0.544974) |e|*Ang

Energy contributions relative to reference atoms: (reference = -47308.856919)

Kinetic:       +239.490027
Potential:     -249.550424
External:        +0.000000
XC:            -326.851654
Entropy (-ST):   +0.000000
Local:           -0.629032
--------------------------
Free energy:   -337.541082
Extrapolated:  -337.541082

 Band  Eigenvalues  Occupancy
    0    -26.94890    2.00000
    1    -26.22085    2.00000
    2    -24.86377    2.00000
    3    -24.33889    2.00000
    4    -23.97336    2.00000
    5    -22.77858    2.00000
    6    -22.32137    2.00000
    7    -21.51626    2.00000
    8    -21.27574    2.00000
    9    -20.67008    2.00000
   10    -19.41048    2.00000
   11    -19.04957    2.00000
   12    -18.84002    2.00000
   13    -18.49064    2.00000
   14    -18.32067    2.00000
   15    -18.03958    2.00000
   16    -17.08408    2.00000
   17    -16.97948    2.00000
   18    -16.76456    2.00000
   19    -16.52253    2.00000
   20    -16.09111    2.00000
   21    -15.60924    2.00000
   22    -15.23714    2.00000
   23    -14.76689    2.00000
   24    -14.52523    2.00000
   25    -14.09610    2.00000
   26    -13.86533    2.00000
   27    -13.49269    2.00000
   28    -13.21737    2.00000
   29    -12.83948    2.00000
   30    -12.44416    2.00000
   31    -12.19597    2.00000
   32    -12.15826    2.00000
   33    -11.92891    2.00000
   34    -11.82022    2.00000
   35    -11.62316    2.00000
   36    -11.49562    2.00000
   37    -11.41441    2.00000
   38    -11.07432    2.00000
   39    -10.91423    2.00000
   40    -10.81347    2.00000
   41    -10.72786    2.00000
   42    -10.54298    2.00000
   43    -10.43203    2.00000
   44    -10.38503    2.00000
   45    -10.24605    2.00000
   46    -10.13410    2.00000
   47     -9.95736    2.00000
   48     -9.90147    2.00000
   49     -9.75996    2.00000
   50     -9.67992    2.00000
   51     -9.58276    2.00000
   52     -9.54149    2.00000
   53     -9.42062    2.00000
   54     -9.31921    2.00000
   55     -9.29985    2.00000
   56     -8.89781    2.00000
   57     -8.86693    2.00000
   58     -8.73727    2.00000
   59     -8.47094    2.00000
   60     -8.38696    2.00000
   61     -8.28587    2.00000
   62     -8.14601    2.00000
   63     -8.01291    2.00000
   64     -7.87648    2.00000
   65     -7.60900    2.00000
   66     -7.28644    2.00000
   67     -7.14383    2.00000
   68     -7.02592    2.00000
   69     -6.76749    2.00000
   70     -6.57901    2.00000
   71     -6.29558    2.00000
   72     -6.21768    2.00000
   73     -6.08480    2.00000
   74     -5.97736    2.00000
   75     -5.82207    2.00000
   76     -5.71648    2.00000
   77     -5.49662    2.00000
   78     -5.28359    2.00000
   79     -5.12920    2.00000
   80     -4.43808    2.00000
   81     -1.62930    0.00000
   82     -1.45544    0.00000
   83     -1.10740    0.00000
   84     -0.76498    0.00000
   85     -0.52061    0.00000
   86     -0.27468    0.00000
   87     -0.01448    0.00000
   88      0.07184    0.00000
   89      0.11904    0.00000
   90      0.20894    0.00000
   91      0.31132    0.00000
   92      0.45224    0.00000
   93      0.48095    0.00000
   94      0.59784    0.00000
   95      0.61630    0.00000
   96      0.70464    0.00000
   97      0.74284    0.00000
   98      0.79651    0.00000
   99      0.83568    0.00000
  100      0.87280    0.00000
  101      0.97126    0.00000

Fermi level: -3.03369

Gap: 2.809 eV
Transition (v -> c):
  (s=0, k=0, n=80, [0.00, 0.00, 0.00]) -> (s=0, k=0, n=81, [0.00, 0.00, 0.00])

Forces in eV/Ang:
  0 H     0.00478    0.00072   -0.02470
  1 H     0.02760   -0.01554   -0.02006
  2 H    -0.01310   -0.00191   -0.01759
  3 H    -0.00023   -0.01474    0.00495
  4 H    -0.01515   -0.01729   -0.01381
  5 H     0.00596    0.01545    0.01333
  6 H     0.01782    0.01119    0.01665
  7 H     0.02194   -0.02600   -0.01738
  8 H     0.01184    0.00257   -0.00128
  9 H    -0.00924   -0.00649   -0.01067
 10 H    -0.01031   -0.01047    0.00595
 11 H    -0.00567    0.00370    0.00039
 12 H    -0.00213   -0.01940   -0.01314
 13 H    -0.01574    0.01297    0.00170
 14 H     0.01985   -0.00821    0.00760
 15 H     0.01480   -0.00311    0.01831
 16 H     0.00026    0.00890   -0.02121
 17 H    -0.01633    0.02199    0.00440
 18 H     0.00314   -0.03351    0.01653
 19 H    -0.02222   -0.03926    0.00534
 20 H     0.01520   -0.02960    0.02359
 21 H     0.01168    0.00977    0.01088
 22 H     0.00927   -0.00860   -0.01565
 23 H     0.01091    0.01471    0.00508
 24 H    -0.02151    0.00861   -0.01095
 25 O    -0.01322    0.03040    0.02164
 26 O     0.00117   -0.00891    0.00193
 27 N     0.00660   -0.04398   -0.00296
 28 N     0.02621    0.01781    0.00650
 29 O     0.01125   -0.03534    0.00201
 30 C    -0.01108   -0.00479   -0.00166
 31 C    -0.02756   -0.01076    0.01251
 32 C     0.00807    0.01101    0.00458
 33 C    -0.00172   -0.03036    0.02853
 34 C    -0.01332    0.01434    0.03119
 35 C    -0.01195    0.00257   -0.01136
 36 C     0.00178    0.01027    0.00775
 37 C     0.01416    0.00941    0.02354
 38 C     0.01565    0.00945    0.03941
 39 C     0.01122   -0.00422    0.00211
 40 C    -0.00995    0.00764   -0.00544
 41 C    -0.01412    0.02539   -0.00312
 42 C     0.00380    0.01821   -0.01114
 43 C     0.00023    0.00048   -0.00600
 44 N    -0.04195    0.01166    0.02228
 45 N     0.00516   -0.00017    0.00029
 46 N    -0.00214   -0.01243   -0.00968
 47 C    -0.00634   -0.00742   -0.00123
 48 C     0.01748    0.00156   -0.02079
 49 C    -0.00646    0.00647   -0.00116
 50 C    -0.01302   -0.01066    0.01573
 51 C     0.00292   -0.00308    0.00808
 52 C     0.02265    0.00982    0.01386
 53 C     0.00478    0.00869   -0.01464
 54 C    -0.00181    0.00357   -0.01103
 55 S    -0.02006    0.02076    0.00121

Timing:                                      incl.     excl.
-------------------------------------------------------------------
Density initialized from wave functions:   111.309   111.307   1.1% |
 Symmetrize density:                         0.001     0.001   0.0% |
Forces:                                    553.322   553.322   5.5% |-|
Hamiltonian:                                94.472     4.252   0.0% |
 Atomic:                                     1.845     0.070   0.0% |
  XC Correction:                             1.775     1.775   0.0% |
 Calculate atomic Hamiltonians:             47.617    47.617   0.5% |
 Communicate:                                4.799     4.799   0.0% |
 Initialize Hamiltonian:                     0.002     0.002   0.0% |
 Poisson:                                    0.211     0.211   0.0% |
 XC 3D grid:                                35.747    35.747   0.4% |
LCAO initialization:                         7.609     1.182   0.0% |
 LCAO eigensolver:                           0.245     0.000   0.0% |
  Calculate projections:                     0.000     0.000   0.0% |
  DenseAtomicCorrection:                     0.000     0.000   0.0% |
  Distribute overlap matrix:                 0.226     0.226   0.0% |
  Orbital Layouts:                           0.012     0.012   0.0% |
  Potential matrix:                          0.007     0.007   0.0% |
 LCAO to grid:                               5.584     5.584   0.1% |
 Set positions (LCAO WFS):                   0.597     0.507   0.0% |
  Basic WFS set positions:                   0.004     0.004   0.0% |
  Basis functions set positions:             0.001     0.001   0.0% |
  P tci:                                     0.001     0.001   0.0% |
  ST tci:                                    0.021     0.021   0.0% |
  mktci:                                     0.063     0.063   0.0% |
PWDescriptor:                                0.236     0.236   0.0% |
Redistribute:                                0.056     0.056   0.0% |
SCF-cycle:                                9232.093     1.052   0.0% |
 Davidson:                                6810.111  3203.474  31.7% |------------|
  Apply H:                                 661.885   658.241   6.5% |--|
   HMM T:                                    3.644     3.644   0.0% |
  Subspace diag:                           893.345     0.176   0.0% |
   calc_h_matrix:                          780.622    62.306   0.6% |
    Apply H:                               718.316   714.524   7.1% |--|
     HMM T:                                  3.792     3.792   0.0% |
   diagonalize:                              4.059     4.059   0.0% |
   rotate_psi:                             108.488   108.488   1.1% |
  calc. matrices:                         1861.742   432.075   4.3% |-|
   Apply H:                               1429.666  1422.238  14.1% |-----|
    HMM T:                                   7.429     7.429   0.1% |
  diagonalize:                              14.703    14.703   0.1% |
  rotate_psi:                              174.961   174.961   1.7% ||
 Density:                                 1311.460     0.036   0.0% |
  Atomic density matrices:                   1.855     1.855   0.0% |
  Mix:                                     885.097   885.097   8.8% |---|
  Multipole moments:                         0.300     0.300   0.0% |
  Pseudo density:                          424.171   424.159   4.2% |-|
   Symmetrize density:                       0.013     0.013   0.0% |
 Hamiltonian:                             1039.867    68.808   0.7% |
  Atomic:                                   23.971     0.914   0.0% |
   XC Correction:                           23.057    23.057   0.2% |
  Calculate atomic Hamiltonians:           549.521   549.521   5.4% |-|
  Communicate:                              55.922    55.922   0.6% |
  Poisson:                                   3.448     3.448   0.0% |
  XC 3D grid:                              338.197   338.197   3.3% ||
 Orthonormalize:                            69.604     0.020   0.0% |
  calc_s_matrix:                             2.725     2.725   0.0% |
  inverse-cholesky:                          0.245     0.245   0.0% |
  projections:                              64.570    64.570   0.6% |
  rotate_psi_s:                              2.043     2.043   0.0% |
Set symmetry:                                0.004     0.004   0.0% |
Other:                                     108.270   108.270   1.1% |
-------------------------------------------------------------------
Total:                                             10107.371 100.0%

Date: Thu Jul  8 02:43:21 2021
