40
Lattice="21.818 0.0 0.0 0.0 14.9396 0.0 0.0 0.0 13.6101" Properties=species:S:1:pos:R:3:forces:R:3:magmoms:R:1 energy=-229.24449193254748 dipole="0.1388643764595993 -0.2969804294451351 0.7662593480558794" magmom=0.0 free_energy=-229.24449193254748 pbc="F F F"
H        5.67296011      10.99716802       5.66278366      -0.00349662      -0.01930703      -0.01327115       0.00000000
H        7.95571979      10.10953618       6.21961636      -0.00821209      -0.00432960       0.00623224       0.00000000
H       12.25979528       4.46241965       8.11546423      -0.02054480       0.00473405      -0.00487829       0.00000000
H        8.72874891       6.48775542       5.55767697      -0.00550402       0.00250678       0.00607299       0.00000000
H       16.17970092       5.47744324       7.55044927       0.02108579       0.01508653       0.02504874       0.00000000
H        9.39508394       6.59238399       8.92011044      -0.01003099       0.00475389       0.00716517       0.00000000
H       10.13400208       4.99565789       9.22400940       0.01047286      -0.01163135       0.00320309       0.00000000
H        8.92872466       5.18028166       7.91684101      -0.01706966      -0.00762762      -0.01122562       0.00000000
H       17.82751575       7.28316658       7.99091859      -0.01456387      -0.01872663      -0.02629070       0.00000000
H       17.60755141       8.76821872       7.03200078      -0.00270793       0.00091968       0.00190915       0.00000000
H       17.72362632       7.19481905       6.20044522      -0.01422888      -0.00813231       0.01222231       0.00000000
H       15.35716964       7.94686404       6.26242139      -0.00675247      -0.01710476      -0.02893645       0.00000000
O        9.93106893       9.21742859       6.70027905      -0.00650474      -0.01000250      -0.00595735       0.00000000
O       14.77410849       5.91918667       4.79994432       0.01306318      -0.00032586      -0.00201142       0.00000000
O       14.56246731       3.98106354       6.46671464       0.00585261       0.00644848       0.01426999       0.00000000
F        6.65624792       6.02144524       4.75494394      -0.00467788      -0.00267303       0.00181919       0.00000000
F       15.41030029       9.64434427       8.21149604       0.01114830       0.00479305       0.00302762       0.00000000
F       13.89050788       8.10821014       8.44129208      -0.00509493       0.01660219       0.00547867       0.00000000
F       15.78505186       7.92248371       9.52389712      -0.01996301       0.00160008      -0.00210355       0.00000000
Cl       3.93062624       6.93728665       4.04413663      -0.00054737      -0.02280630      -0.00647565       0.00000000
Cl      12.61294970       8.18065212       4.83575246      -0.02140969      -0.02421667      -0.00425258       0.00000000
N        4.92522281       9.20169903       4.95740703       0.00743486       0.00247489       0.01401649       0.00000000
C        9.79778332       8.02521585       6.42629859       0.01421934      -0.00011485      -0.00090956       0.00000000
C        5.91814754       9.94422753       5.48463549       0.01147129       0.00141229       0.00098284       0.00000000
C        5.19257611       7.91792155       4.72638058      -0.00040767       0.00178663      -0.00302419       0.00000000
C        7.18289003       9.46476532       5.80310856      -0.01510937       0.00683546       0.00551445       0.00000000
C        6.42482111       7.33562131       5.00454515      -0.00697724      -0.00521973      -0.00354859       0.00000000
C       12.12275927       7.03863334       6.01511735       0.00276095      -0.00543026      -0.00647868       0.00000000
C        7.45513371       8.10759987       5.56376274      -0.00881909       0.01307616       0.00708703       0.00000000
C       12.84937046       5.93433364       6.53009691      -0.00090499       0.00454626      -0.01075586       0.00000000
C       12.04317186       5.31753921       7.47940405       0.02645220      -0.01358295       0.00574167       0.00000000
C       10.88572157       7.04425403       6.64253050       0.01713820      -0.01208030      -0.00496013       0.00000000
N        8.66442623       7.47607975       5.84486449       0.00300966      -0.00853597       0.00245909       0.00000000
N       15.40962209       6.13576867       7.33286205       0.01061167      -0.00622526       0.00479291       0.00000000
N       10.85526482       5.98441415       7.53875365      -0.00383041      -0.02319257      -0.01085036       0.00000000
C        9.76221795       5.67181966       8.44317315      -0.00282211      -0.01129825      -0.00302180       0.00000000
C       17.33796458       7.70323735       7.09677811      -0.01326637       0.00175422      -0.00801188       0.00000000
C       15.22515701       8.30715881       8.34669282      -0.00560620       0.00192862      -0.01447589       0.00000000
C       15.82424417       7.53187199       7.17316539      -0.00838661      -0.02367255      -0.02926430       0.00000000
S       14.46734121       5.39731347       6.13117597      -0.03223206      -0.00234923      -0.03123307       0.00000000
