
  ___ ___ ___ _ _ _  
 |   |   |_  | | | | 
 | | | | | . | | | | 
 |__ |  _|___|_____|  21.6.0
 |___|_|             

User:   hanguo02@comput130.ghddi.org
Date:   Fri Jul  2 16:19:13 2021
Arch:   x86_64
Pid:    250257
Python: 3.6.8
gpaw:   /home/hanguo02/.local/lib/python3.6/site-packages/gpaw
_gpaw:  /home/hanguo02/.local/lib/python3.6/site-packages/
        _gpaw.cpython-36m-x86_64-linux-gnu.so
ase:    /home/hanguo02/.local/lib/python3.6/site-packages/ase (version 3.22.0)
numpy:  /usr/lib64/python3.6/site-packages/numpy (version 1.16.2)
scipy:  /usr/lib64/python3.6/site-packages/scipy (version 1.2.1)
libxc:  4.2.0
units:  Angstrom and eV
cores: 32
OpenMP: False
OMP_NUM_THREADS: 1

Input parameters:
  mode: {ecut: 400.0,
         gammacentered: False,
         name: pw}
  xc: PBE

System changes: positions, numbers, cell, pbc, initial_charges, initial_magmoms 

Initialize ...

H-setup:
  name: Hydrogen
  id: d65de229564ff8ea4db303e23b6d1ecf
  Z: 1.0
  valence: 1
  core: 0
  charge: 0.0
  file: /home/hanguo02/Software/GPAW/gpaw-setups-0.9.20000/H.PBE.gz
  compensation charges: gauss, rc=0.15, lmax=2
  cutoffs: 0.85(filt), 0.53(core),
  valence states:
                energy  radius
    1s(1.00)    -6.494   0.476
    *s          20.717   0.476
    *p           0.000   0.476

  Using partial waves for H as LCAO basis

O-setup:
  name: Oxygen
  id: 32ecd46bf208036f09c70b0ec9a88b78
  Z: 8.0
  valence: 6
  core: 2
  charge: 0.0
  file: /home/hanguo02/Software/GPAW/gpaw-setups-0.9.20000/O.PBE.gz
  compensation charges: gauss, rc=0.21, lmax=2
  cutoffs: 1.17(filt), 0.83(core),
  valence states:
                energy  radius
    2s(2.00)   -23.961   0.688
    2p(4.00)    -9.029   0.598
    *s           3.251   0.688
    *p          18.182   0.598
    *d           0.000   0.619

  Using partial waves for O as LCAO basis

F-setup:
  name: Fluorine
  id: 9cd46ba2a61e170ad72278be75b55cc0
  Z: 9.0
  valence: 7
  core: 2
  charge: 0.0
  file: /home/hanguo02/Software/GPAW/gpaw-setups-0.9.20000/F.PBE.gz
  compensation charges: gauss, rc=0.20, lmax=2
  cutoffs: 1.14(filt), 0.74(core),
  valence states:
                energy  radius
    2s(2.00)   -29.898   0.635
    2p(5.00)   -11.110   0.635
    *s          -2.687   0.635
    *p          16.102   0.635
    *d           0.000   0.635

  Using partial waves for F as LCAO basis

Cl-setup:
  name: Chlorine
  id: 726897f06f34e53cf8e33b5885a02604
  Z: 17.0
  valence: 7
  core: 10
  charge: 0.0
  file: /home/hanguo02/Software/GPAW/gpaw-setups-0.9.20000/Cl.PBE.gz
  compensation charges: gauss, rc=0.25, lmax=2
  cutoffs: 1.40(filt), 1.49(core),
  valence states:
                energy  radius
    3s(2.00)   -20.689   0.794
    3p(5.00)    -8.594   0.794
    *s           6.523   0.794
    *p          18.617   0.794
    *d           0.000   0.794

  Using partial waves for Cl as LCAO basis

N-setup:
  name: Nitrogen
  id: f7500608b86eaa90eef8b1d9a670dc53
  Z: 7.0
  valence: 5
  core: 2
  charge: 0.0
  file: /home/hanguo02/Software/GPAW/gpaw-setups-0.9.20000/N.PBE.gz
  compensation charges: gauss, rc=0.18, lmax=2
  cutoffs: 1.11(filt), 0.96(core),
  valence states:
                energy  radius
    2s(2.00)   -18.583   0.603
    2p(3.00)    -7.089   0.529
    *s           8.629   0.603
    *p          20.123   0.529
    *d           0.000   0.577

  Using partial waves for N as LCAO basis

C-setup:
  name: Carbon
  id: 4aa54d4b901d75f77cc0ea3eec22967b
  Z: 6.0
  valence: 4
  core: 2
  charge: 0.0
  file: /home/hanguo02/Software/GPAW/gpaw-setups-0.9.20000/C.PBE.gz
  compensation charges: gauss, rc=0.20, lmax=2
  cutoffs: 1.14(filt), 1.14(core),
  valence states:
                energy  radius
    2s(2.00)   -13.751   0.635
    2p(2.00)    -5.284   0.635
    *s          13.461   0.635
    *p          21.927   0.635
    *d           0.000   0.635

  Using partial waves for C as LCAO basis

S-setup:
  name: Sulfur
  id: ca434db9faa07220b7a1d8cb6886b7a9
  Z: 16.0
  valence: 6
  core: 10
  charge: 0.0
  file: /home/hanguo02/Software/GPAW/gpaw-setups-0.9.20000/S.PBE.gz
  compensation charges: gauss, rc=0.24, lmax=2
  cutoffs: 1.77(filt), 1.66(core),
  valence states:
                energy  radius
    3s(2.00)   -17.254   0.974
    3p(4.00)    -7.008   0.979
    *s           9.957   0.974
    *p          20.203   0.979
    *d           0.000   0.900

  Using partial waves for S as LCAO basis

Reference energy: -73409.960314

Spin-paired calculation

Convergence criteria:
  Maximum total energy change: 0.0005 eV / electron
  Maximum integral of absolute density change: 0.0001 electrons
  Maximum integral of absolute eigenstate change: 4e-08 eV^2
  Maximum number of iterations: 333

Symmetries present (total): 1

  ( 1  0  0)
  ( 0  1  0)
  ( 0  0  1)

1 k-point (Gamma)
1 k-point in the irreducible part of the Brillouin zone
       k-points in crystal coordinates                weights
   0:     0.00000000    0.00000000    0.00000000          1/1

Wave functions: Plane wave expansion
  Cutoff energy: 400.000 eV
  Number of coefficients: 80559 (reduced to 40280)
  Pulay-stress correction: 0.000000 eV/Ang^3 (de/decut=0.000000)
  Using Numpy's FFT
  ScaLapack parameters: grid=1x1, blocksize=None
  Wavefunction extrapolation:
    Improved wavefunction reuse through dual PAW basis 

Occupation numbers: width=0.000 eV 

Eigensolver
   Davidson(niter=2) 

Densities:
  Coarse grid: 105*70*63 grid
  Fine grid: 210*140*126 grid
  Total Charge: 0.000000 

Density mixing:
  Method: separate
  Backend: pulay
  Linear mixing parameter: 0.05
  Mixing with 5 old densities
  Damping of long wave oscillations: 50 

Hamiltonian:
  XC and Coulomb potentials evaluated on a 210*140*126 grid
  Using the PBE Exchange-Correlation functional
 

XC parameters: PBE with 2 nearest neighbor stencil

Memory estimate:
  Process memory now: 248.18 MiB
  Calculator: 145.48 MiB
    Density: 10.84 MiB
      Arrays: 2.91 MiB
      Localized functions: 6.74 MiB
      Mixer: 1.19 MiB
    Hamiltonian: 2.12 MiB
      Arrays: 1.90 MiB
      XC: 0.00 MiB
      Poisson: 0.00 MiB
      vbar: 0.22 MiB
    Wavefunctions: 132.53 MiB
      Arrays psit_nG: 59.62 MiB
      Eigensolver: 63.41 MiB
      Projections: 0.01 MiB
      Projectors: 0.40 MiB
      PW-descriptor: 9.08 MiB

Total number of cores used: 32
Domain decomposition: 4 x 4 x 2

Number of atoms: 40
Number of atomic orbitals: 124
Number of bands in calculation: 97
Number of valence electrons: 154
Bands to converge: occupied

... initialized

Initializing position-dependent things.

Density initialized from atomic densities
Creating initial wave functions:
  97 bands from LCAO basis set

          .-----------------------------------------------------.  
         /|                                                     |  
        / |                                                     |  
       /  |                                                     |  
      /   |                                                     |  
     /    |                                                     |  
    /     |                                                     |  
   /      |                                                     |  
  /       |                                                     |  
 *        |                                  F                  |  
 |        |                             F   CF                  |  
 |        |                 HH                    H             |  
 |        |           H    H C O             C   CH             |  
 |        |           C C H   CNC H        NHH                  |  
 |        |        N    C  N       CC            H              |  
 |        |        C C     H         ClOS                       |  
 |        |          F                   O                      |  
 |        .----Cl-----------------------------------------------.  
 |       /                                                     /   
 |      /                                                     /    
 |     /                                                     /     
 |    /                                                     /      
 |   /                                                     /       
 |  /                                                     /        
 | /                                                     /         
 |/                                                     /          
 *-----------------------------------------------------*           

Positions:
   0 H      5.697700   10.939600    5.561500    ( 0.0000,  0.0000,  0.0000)
   1 H      7.914600   10.096800    6.221500    ( 0.0000,  0.0000,  0.0000)
   2 H     12.190300    4.455800    8.164500    ( 0.0000,  0.0000,  0.0000)
   3 H      8.769700    6.449500    5.677400    ( 0.0000,  0.0000,  0.0000)
   4 H     16.325100    5.497900    7.535300    ( 0.0000,  0.0000,  0.0000)
   5 H      9.402200    6.676700    8.923400    ( 0.0000,  0.0000,  0.0000)
   6 H     10.115700    5.082300    9.286600    ( 0.0000,  0.0000,  0.0000)
   7 H      8.965300    5.244700    7.923600    ( 0.0000,  0.0000,  0.0000)
   8 H     17.818000    7.384400    8.079300    ( 0.0000,  0.0000,  0.0000)
   9 H     17.581800    8.818600    7.062600    ( 0.0000,  0.0000,  0.0000)
  10 H     17.738700    7.217500    6.321200    ( 0.0000,  0.0000,  0.0000)
  11 H     15.378500    7.973300    6.330900    ( 0.0000,  0.0000,  0.0000)
  12 O      9.953700    9.213100    6.711800    ( 0.0000,  0.0000,  0.0000)
  13 O     14.784700    5.915600    4.949800    ( 0.0000,  0.0000,  0.0000)
  14 O     14.456400    4.000000    6.553100    ( 0.0000,  0.0000,  0.0000)
  15 F      6.722700    5.944600    4.825500    ( 0.0000,  0.0000,  0.0000)
  16 F     15.466300    9.695600    8.288400    ( 0.0000,  0.0000,  0.0000)
  17 F     13.883300    8.214200    8.515800    ( 0.0000,  0.0000,  0.0000)
  18 F     15.757200    7.983800    9.610100    ( 0.0000,  0.0000,  0.0000)
  19 Cl     4.000000    6.903900    4.000000    ( 0.0000,  0.0000,  0.0000)
  20 Cl    12.719500    8.177100    4.947300    ( 0.0000,  0.0000,  0.0000)
  21 N      4.975400    9.131800    4.876100    ( 0.0000,  0.0000,  0.0000)
  22 C      9.831000    8.024100    6.451100    ( 0.0000,  0.0000,  0.0000)
  23 C      5.950100    9.890800    5.421200    ( 0.0000,  0.0000,  0.0000)
  24 C      5.270900    7.827300    4.689800    ( 0.0000,  0.0000,  0.0000)
  25 C      7.198900    9.406100    5.790600    ( 0.0000,  0.0000,  0.0000)
  26 C      6.484900    7.252200    5.023800    ( 0.0000,  0.0000,  0.0000)
  27 C     12.156200    7.051900    6.097200    ( 0.0000,  0.0000,  0.0000)
  28 C      7.476500    8.056000    5.587600    ( 0.0000,  0.0000,  0.0000)
  29 C     12.858400    5.938200    6.621700    ( 0.0000,  0.0000,  0.0000)
  30 C     12.022700    5.325000    7.538700    ( 0.0000,  0.0000,  0.0000)
  31 C     10.895400    7.070500    6.679100    ( 0.0000,  0.0000,  0.0000)
  32 N      8.701700    7.433500    5.919900    ( 0.0000,  0.0000,  0.0000)
  33 N     15.523300    6.106000    7.365000    ( 0.0000,  0.0000,  0.0000)
  34 N     10.849500    6.026600    7.580100    ( 0.0000,  0.0000,  0.0000)
  35 C      9.758500    5.739300    8.489200    ( 0.0000,  0.0000,  0.0000)
  36 C     17.323400    7.760900    7.177100    ( 0.0000,  0.0000,  0.0000)
  37 C     15.222700    8.372900    8.429600    ( 0.0000,  0.0000,  0.0000)
  38 C     15.809900    7.573000    7.252700    ( 0.0000,  0.0000,  0.0000)
  39 S     14.461500    5.417000    6.264200    ( 0.0000,  0.0000,  0.0000)

Unit cell:
           periodic     x           y           z      points  spacing
  1. axis:    no    21.818000    0.000000    0.000000   105     0.2078
  2. axis:    no     0.000000   14.939600    0.000000    70     0.2134
  3. axis:    no     0.000000    0.000000   13.610100    63     0.2160

  Lengths:  21.818000  14.939600  13.610100
  Angles:   90.000000  90.000000  90.000000

Effective grid spacing dv^(1/3) = 0.2124

                     log10-error:    total        iterations:
           time      wfs    density  energy       poisson
iter:   1  16:19:52                -244.287577           
iter:   2  16:20:16  -0.99  -0.83  -241.919277           
iter:   3  16:20:39  -0.87  -0.86  -230.429176           
iter:   4  16:21:03  -1.57  -1.14  -229.795418           
iter:   5  16:21:27  -1.57  -1.24  -229.129905           
iter:   6  16:21:50  -1.60  -1.60  -229.549834           
iter:   7  16:22:13  -2.22  -1.60  -228.918211           
iter:   8  16:22:36  -2.27  -1.89  -228.783738           
iter:   9  16:23:00  -2.79  -2.20  -228.778228           
iter:  10  16:23:24  -3.37  -2.23  -228.749189           
iter:  11  16:23:47  -3.41  -2.67  -228.757576           
iter:  12  16:24:09  -3.54  -2.55  -228.748713           
iter:  13  16:24:33  -4.50  -2.87  -228.747481           
iter:  14  16:24:56  -5.34  -3.07  -228.747443           
iter:  15  16:25:19  -5.44  -3.10  -228.747311           
iter:  16  16:25:42  -5.29  -3.20  -228.747228           
iter:  17  16:26:05  -6.01  -3.36  -228.747139           
iter:  18  16:26:29  -5.92  -3.43  -228.747068           
iter:  19  16:26:52  -6.33  -3.68  -228.747075           
iter:  20  16:27:15  -6.92  -3.83  -228.747072           
iter:  21  16:27:38  -7.17  -3.87  -228.747066           
iter:  22  16:28:01  -7.25  -3.96  -228.747062           
iter:  23  16:28:24  -6.91  -4.07  -228.747058           
iter:  24  16:28:46  -7.92  -4.38  -228.747058           

Converged after 24 iterations.

Dipole moment: (0.092189, -0.244248, 0.778294) |e|*Ang

Energy contributions relative to reference atoms: (reference = -73409.960314)

Kinetic:       +148.578348
Potential:     -141.805956
External:        +0.000000
XC:            -235.786579
Entropy (-ST):   +0.000000
Local:           +0.267130
--------------------------
Free energy:   -228.747058
Extrapolated:  -228.747058

 Band  Eigenvalues  Occupancy
    0    -32.51466    2.00000
    1    -31.53450    2.00000
    2    -30.30146    2.00000
    3    -30.25331    2.00000
    4    -27.65617    2.00000
    5    -26.59592    2.00000
    6    -25.60889    2.00000
    7    -24.78201    2.00000
    8    -24.35745    2.00000
    9    -23.93588    2.00000
   10    -22.97806    2.00000
   11    -21.87281    2.00000
   12    -21.36533    2.00000
   13    -20.38647    2.00000
   14    -20.22895    2.00000
   15    -19.33179    2.00000
   16    -18.95000    2.00000
   17    -18.56770    2.00000
   18    -17.79294    2.00000
   19    -17.06560    2.00000
   20    -16.88200    2.00000
   21    -16.10440    2.00000
   22    -15.94404    2.00000
   23    -15.47784    2.00000
   24    -15.17125    2.00000
   25    -14.49670    2.00000
   26    -14.36376    2.00000
   27    -13.99646    2.00000
   28    -13.98274    2.00000
   29    -13.84803    2.00000
   30    -13.56372    2.00000
   31    -13.32777    2.00000
   32    -13.17350    2.00000
   33    -12.44290    2.00000
   34    -12.31742    2.00000
   35    -11.96256    2.00000
   36    -11.95065    2.00000
   37    -11.71694    2.00000
   38    -11.70106    2.00000
   39    -11.25600    2.00000
   40    -11.16750    2.00000
   41    -11.10843    2.00000
   42    -10.86544    2.00000
   43    -10.58648    2.00000
   44    -10.55310    2.00000
   45    -10.50830    2.00000
   46    -10.45189    2.00000
   47    -10.31143    2.00000
   48    -10.18176    2.00000
   49    -10.13195    2.00000
   50     -9.99826    2.00000
   51     -9.92154    2.00000
   52     -9.88310    2.00000
   53     -9.78409    2.00000
   54     -9.66668    2.00000
   55     -9.46134    2.00000
   56     -9.34274    2.00000
   57     -9.27595    2.00000
   58     -8.98295    2.00000
   59     -8.84197    2.00000
   60     -8.52829    2.00000
   61     -8.49631    2.00000
   62     -8.14300    2.00000
   63     -7.79583    2.00000
   64     -7.75669    2.00000
   65     -7.40003    2.00000
   66     -7.31976    2.00000
   67     -7.18970    2.00000
   68     -7.05520    2.00000
   69     -6.72006    2.00000
   70     -6.40516    2.00000
   71     -6.26355    2.00000
   72     -6.12590    2.00000
   73     -6.05140    2.00000
   74     -6.04037    2.00000
   75     -5.64265    2.00000
   76     -5.34028    2.00000
   77     -2.14882    0.00000
   78     -1.30032    0.00000
   79     -1.09952    0.00000
   80     -0.88019    0.00000
   81     -0.71425    0.00000
   82     -0.27085    0.00000
   83     -0.04231    0.00000
   84     -0.01814    0.00000
   85      0.06751    0.00000
   86      0.21427    0.00000
   87      0.38061    0.00000
   88      0.47025    0.00000
   89      0.57420    0.00000
   90      0.62309    0.00000
   91      0.72396    0.00000
   92      0.84017    0.00000
   93      0.96275    0.00000
   94      0.99996    0.00000
   95      1.01717    0.00000
   96      1.15762    0.00000

Fermi level: -3.74455

Gap: 3.191 eV
Transition (v -> c):
  (s=0, k=0, n=76, [0.00, 0.00, 0.00]) -> (s=0, k=0, n=77, [0.00, 0.00, 0.00])

Forces in eV/Ang:
  0 H    -0.02560    0.22829    0.05037
  1 H     0.32320   -0.11082    0.07960
  2 H     0.05764   -0.04628    0.08934
  3 H     0.06608   -0.59830   -0.20559
  4 H     0.37125   -0.32451    0.06131
  5 H    -0.19963    0.12369    0.13454
  6 H     0.04488   -0.09956    0.07963
  7 H    -0.44935   -0.14518    0.15003
  8 H     0.04119   -0.04389    0.23479
  9 H     0.06576    0.18256    0.01986
 10 H    -0.08553   -0.05953   -0.19562
 11 H    -0.33768    0.01186   -0.21033
 12 O    -0.07506    0.68605   -0.10166
 13 O     0.05787    0.44932   -0.86857
 14 O     0.62479   -0.69280   -0.07539
 15 F     0.02917   -0.34551   -0.43625
 16 F    -0.07954    0.14205   -0.48262
 17 F    -0.08868   -0.02086   -0.18552
 18 F     0.22739   -0.13122    0.18044
 19 Cl   -0.18814   -0.54746   -0.20373
 20 Cl   -0.05653    0.19549   -0.16124
 21 N     0.44106   -0.21781    0.18432
 22 C    -0.49490   -0.03216    0.03474
 23 C    -0.20984   -0.61747   -0.21889
 24 C    -0.54092    1.04858    0.07402
 25 C    -0.27644    0.56698    0.03401
 26 C    -0.30737    0.38931   -0.03630
 27 C    -0.01246    0.06246   -0.06128
 28 C     1.09584   -0.42391    0.36237
 29 C    -0.11217    0.60602    0.26689
 30 C    -0.29631    0.23743    0.20070
 31 C     1.15419   -0.46947    0.10661
 32 N    -0.97898    1.08049   -0.29465
 33 N    -1.15885    1.69665    0.40705
 34 N     0.36404   -0.67238    0.02037
 35 C     0.11283    0.00906   -0.37105
 36 C     0.01770    0.13656   -0.02308
 37 C     0.00030   -0.57323   -0.24704
 38 C     0.87014   -0.93292    0.09372
 39 S     0.22638   -0.53851   -0.15414

System changes: positions 

Initializing position-dependent things.

Density initialized from wave functions
          .-----------------------------------------------------.  
         /|                                                     |  
        / |                                                     |  
       /  |                                                     |  
      /   |                                                     |  
     /    |                                                     |  
    /     |                                                     |  
   /      |                                                     |  
  /       |                                                     |  
 *        |                                  F                  |  
 |        |                             F   CF                  |  
 |        |                 HH                    H             |  
 |        |           H    H C O             C   CH             |  
 |        |           C C H   CNC H        NHH                  |  
 |        |        N    C  N       CC            H              |  
 |        |        C C     H         ClOS                       |  
 |        |          F                   O                      |  
 |        .----Cl-----------------------------------------------.  
 |       /                                                     /   
 |      /                                                     /    
 |     /                                                     /     
 |    /                                                     /      
 |   /                                                     /       
 |  /                                                     /        
 | /                                                     /         
 |/                                                     /          
 *-----------------------------------------------------*           

Positions:
   0 H      5.697334   10.942861    5.562220    ( 0.0000,  0.0000,  0.0000)
   1 H      7.919217   10.095217    6.222637    ( 0.0000,  0.0000,  0.0000)
   2 H     12.191123    4.455139    8.165776    ( 0.0000,  0.0000,  0.0000)
   3 H      8.770644    6.440953    5.674463    ( 0.0000,  0.0000,  0.0000)
   4 H     16.330404    5.493264    7.536176    ( 0.0000,  0.0000,  0.0000)
   5 H      9.399348    6.678467    8.925322    ( 0.0000,  0.0000,  0.0000)
   6 H     10.116341    5.080878    9.287738    ( 0.0000,  0.0000,  0.0000)
   7 H      8.958881    5.242626    7.925743    ( 0.0000,  0.0000,  0.0000)
   8 H     17.818588    7.383773    8.082654    ( 0.0000,  0.0000,  0.0000)
   9 H     17.582739    8.821208    7.062884    ( 0.0000,  0.0000,  0.0000)
  10 H     17.737478    7.216650    6.318405    ( 0.0000,  0.0000,  0.0000)
  11 H     15.373676    7.973469    6.327895    ( 0.0000,  0.0000,  0.0000)
  12 O      9.952628    9.222901    6.710348    ( 0.0000,  0.0000,  0.0000)
  13 O     14.785527    5.922019    4.937392    ( 0.0000,  0.0000,  0.0000)
  14 O     14.465326    3.990103    6.552023    ( 0.0000,  0.0000,  0.0000)
  15 F      6.723117    5.939664    4.819268    ( 0.0000,  0.0000,  0.0000)
  16 F     15.465164    9.697629    8.281505    ( 0.0000,  0.0000,  0.0000)
  17 F     13.882033    8.213902    8.513150    ( 0.0000,  0.0000,  0.0000)
  18 F     15.760448    7.981925    9.612678    ( 0.0000,  0.0000,  0.0000)
  19 Cl     3.997312    6.896079    3.997090    ( 0.0000,  0.0000,  0.0000)
  20 Cl    12.718692    8.179893    4.944997    ( 0.0000,  0.0000,  0.0000)
  21 N      4.981701    9.128688    4.878733    ( 0.0000,  0.0000,  0.0000)
  22 C      9.823930    8.023641    6.451596    ( 0.0000,  0.0000,  0.0000)
  23 C      5.947102    9.881979    5.418073    ( 0.0000,  0.0000,  0.0000)
  24 C      5.263173    7.842280    4.690857    ( 0.0000,  0.0000,  0.0000)
  25 C      7.194951    9.414200    5.791086    ( 0.0000,  0.0000,  0.0000)
  26 C      6.480509    7.257762    5.023281    ( 0.0000,  0.0000,  0.0000)
  27 C     12.156022    7.052792    6.096325    ( 0.0000,  0.0000,  0.0000)
  28 C      7.492155    8.049944    5.592777    ( 0.0000,  0.0000,  0.0000)
  29 C     12.856798    5.946857    6.625513    ( 0.0000,  0.0000,  0.0000)
  30 C     12.018467    5.328392    7.541567    ( 0.0000,  0.0000,  0.0000)
  31 C     10.911888    7.063793    6.680623    ( 0.0000,  0.0000,  0.0000)
  32 N      8.687715    7.448936    5.915691    ( 0.0000,  0.0000,  0.0000)
  33 N     15.506745    6.130238    7.370815    ( 0.0000,  0.0000,  0.0000)
  34 N     10.854701    6.016995    7.580391    ( 0.0000,  0.0000,  0.0000)
  35 C      9.760112    5.739429    8.483899    ( 0.0000,  0.0000,  0.0000)
  36 C     17.323653    7.762851    7.176770    ( 0.0000,  0.0000,  0.0000)
  37 C     15.222704    8.364711    8.426071    ( 0.0000,  0.0000,  0.0000)
  38 C     15.822331    7.559673    7.254039    ( 0.0000,  0.0000,  0.0000)
  39 S     14.464734    5.409307    6.261998    ( 0.0000,  0.0000,  0.0000)

Unit cell:
           periodic     x           y           z      points  spacing
  1. axis:    no    21.818000    0.000000    0.000000   105     0.2078
  2. axis:    no     0.000000   14.939600    0.000000    70     0.2134
  3. axis:    no     0.000000    0.000000   13.610100    63     0.2160

  Lengths:  21.818000  14.939600  13.610100
  Angles:   90.000000  90.000000  90.000000

Effective grid spacing dv^(1/3) = 0.2124

                     log10-error:    total        iterations:
           time      wfs    density  energy       poisson
iter:   1  16:29:28  -2.11         -229.003864           
iter:   2  16:29:51  -3.57  -2.16  -228.979595           
iter:   3  16:30:14  -2.50  -2.19  -228.909845           
iter:   4  16:30:37  -3.87  -2.56  -228.902181           
iter:   5  16:31:01  -4.26  -2.64  -228.900331           
iter:   6  16:31:26  -3.87  -2.75  -228.896968           
iter:   7  16:31:49  -4.94  -3.02  -228.896194           
iter:   8  16:32:12  -5.46  -3.33  -228.896203           
iter:   9  16:32:36  -5.72  -3.47  -228.896251           
iter:  10  16:32:59  -5.35  -3.48  -228.896239           
iter:  11  16:33:21  -6.94  -3.84  -228.896220           
iter:  12  16:33:44  -6.74  -3.93  -228.896211           
iter:  13  16:34:08  -6.86  -3.98  -228.896212           
iter:  14  16:34:30  -7.74  -4.19  -228.896213           

Converged after 14 iterations.

Dipole moment: (0.126787, -0.291569, 0.790206) |e|*Ang

Energy contributions relative to reference atoms: (reference = -73409.960314)

Kinetic:       +143.870499
Potential:     -138.438155
External:        +0.000000
XC:            -234.607911
Entropy (-ST):   +0.000000
Local:           +0.279354
--------------------------
Free energy:   -228.896213
Extrapolated:  -228.896213

 Band  Eigenvalues  Occupancy
    0    -32.41476    2.00000
    1    -31.34995    2.00000
    2    -30.23601    2.00000
    3    -30.18240    2.00000
    4    -27.59731    2.00000
    5    -26.54424    2.00000
    6    -25.72186    2.00000
    7    -24.76602    2.00000
    8    -24.49043    2.00000
    9    -24.08543    2.00000
   10    -23.08507    2.00000
   11    -21.90761    2.00000
   12    -21.30633    2.00000
   13    -20.35781    2.00000
   14    -20.24617    2.00000
   15    -19.32899    2.00000
   16    -18.92985    2.00000
   17    -18.53724    2.00000
   18    -17.82116    2.00000
   19    -17.06234    2.00000
   20    -16.97985    2.00000
   21    -16.13789    2.00000
   22    -15.95453    2.00000
   23    -15.44687    2.00000
   24    -15.09540    2.00000
   25    -14.46448    2.00000
   26    -14.37309    2.00000
   27    -13.96108    2.00000
   28    -13.92205    2.00000
   29    -13.83396    2.00000
   30    -13.57485    2.00000
   31    -13.38203    2.00000
   32    -13.09895    2.00000
   33    -12.40924    2.00000
   34    -12.31127    2.00000
   35    -11.97422    2.00000
   36    -11.87278    2.00000
   37    -11.71900    2.00000
   38    -11.68269    2.00000
   39    -11.26866    2.00000
   40    -11.19994    2.00000
   41    -11.11655    2.00000
   42    -10.81222    2.00000
   43    -10.61887    2.00000
   44    -10.52124    2.00000
   45    -10.50246    2.00000
   46    -10.45821    2.00000
   47    -10.30006    2.00000
   48    -10.18174    2.00000
   49    -10.16807    2.00000
   50     -9.98837    2.00000
   51     -9.96789    2.00000
   52     -9.90437    2.00000
   53     -9.81489    2.00000
   54     -9.71567    2.00000
   55     -9.41004    2.00000
   56     -9.33784    2.00000
   57     -9.17231    2.00000
   58     -8.96080    2.00000
   59     -8.79201    2.00000
   60     -8.52754    2.00000
   61     -8.50279    2.00000
   62     -8.17652    2.00000
   63     -7.81369    2.00000
   64     -7.78285    2.00000
   65     -7.37141    2.00000
   66     -7.29405    2.00000
   67     -7.24063    2.00000
   68     -7.10244    2.00000
   69     -6.71109    2.00000
   70     -6.41010    2.00000
   71     -6.28822    2.00000
   72     -6.10732    2.00000
   73     -6.05840    2.00000
   74     -6.01432    2.00000
   75     -5.67838    2.00000
   76     -5.39449    2.00000
   77     -2.19486    0.00000
   78     -1.29155    0.00000
   79     -1.06309    0.00000
   80     -0.82206    0.00000
   81     -0.74810    0.00000
   82     -0.27172    0.00000
   83     -0.09184    0.00000
   84     -0.06646    0.00000
   85      0.04307    0.00000
   86      0.20450    0.00000
   87      0.35196    0.00000
   88      0.45345    0.00000
   89      0.56560    0.00000
   90      0.57885    0.00000
   91      0.70823    0.00000
   92      0.80225    0.00000
   93      0.94074    0.00000
   94      0.95626    0.00000
   95      0.96343    0.00000
   96      1.09037    0.00000

Fermi level: -3.79467

Gap: 3.200 eV
Transition (v -> c):
  (s=0, k=0, n=76, [0.00, 0.00, 0.00]) -> (s=0, k=0, n=77, [0.00, 0.00, 0.00])

Forces in eV/Ang:
  0 H     0.02377   -0.12416   -0.01214
  1 H     0.25379   -0.02114    0.07221
  2 H     0.05376    0.03337    0.02707
  3 H    -0.08291    0.34832    0.00670
  4 H    -0.64648    0.45685   -0.10688
  5 H    -0.09566   -0.00831    0.02456
  6 H    -0.01978   -0.00804   -0.03921
  7 H    -0.34190   -0.09688    0.15463
  8 H     0.02581   -0.00007    0.11893
  9 H     0.01853    0.14640    0.02176
 10 H    -0.07228   -0.01008   -0.11997
 11 H    -0.09655   -0.12633    0.13269
 12 O    -0.14759   -0.11870   -0.22347
 13 O    -0.07709    0.10235   -0.14181
 14 O     0.68385   -0.47990   -0.06759
 15 F    -0.11312    0.09525   -0.37947
 16 F    -0.11940   -0.19641   -0.44915
 17 F     0.04911   -0.07526   -0.23593
 18 F     0.09451   -0.07298    0.04156
 19 Cl   -0.10494   -0.39147   -0.13725
 20 Cl   -0.09486    0.16695   -0.12852
 21 N    -0.23172    0.12649    0.02091
 22 C     0.07741    0.49413    0.24181
 23 C     0.06458    0.33735    0.11238
 24 C    -0.15096   -0.00457   -0.01715
 25 C     0.10600   -0.15444    0.02051
 26 C     0.01383    0.19007    0.03613
 27 C     0.42462    0.13225   -0.26518
 28 C    -0.58541    0.51021   -0.08675
 29 C     0.20492    0.12697    0.28731
 30 C     0.36452   -0.17749    0.18335
 31 C    -0.28096    0.10924    0.14863
 32 N     0.39980   -0.64182   -0.20787
 33 N     0.09953   -0.03585    0.66648
 34 N    -0.09641   -0.19533   -0.08405
 35 C    -0.01428   -0.04935   -0.09106
 36 C     0.29972   -0.04632    0.00912
 37 C     0.13338   -0.18581   -0.10851
 38 C     0.12267   -0.00045   -0.33892
 39 S     0.04052    0.06239   -0.75993

System changes: positions 

Initializing position-dependent things.

Density initialized from wave functions
          .-----------------------------------------------------.  
         /|                                                     |  
        / |                                                     |  
       /  |                                                     |  
      /   |                                                     |  
     /    |                                                     |  
    /     |                                                     |  
   /      |                                                     |  
  /       |                                                     |  
 *        |                                  F                  |  
 |        |                             F   CF                  |  
 |        |                 HH                    H             |  
 |        |           H    H C O             C   CH             |  
 |        |           C C H   CNC H        NHH                  |  
 |        |        N    C  N       CC            H              |  
 |        |        C C     H         ClOS                       |  
 |        |          F                   O                      |  
 |        .----Cl-----------------------------------------------.  
 |       /                                                     /   
 |      /                                                     /    
 |     /                                                     /     
 |    /                                                     /      
 |   /                                                     /       
 |  /                                                     /        
 | /                                                     /         
 |/                                                     /          
 *-----------------------------------------------------*           

Positions:
   0 H      5.697558   10.942083    5.562258    ( 0.0000,  0.0000,  0.0000)
   1 H      7.924047   10.094470    6.223961    ( 0.0000,  0.0000,  0.0000)
   2 H     12.192102    4.455410    8.166516    ( 0.0000,  0.0000,  0.0000)
   3 H      8.769770    6.443310    5.673713    ( 0.0000,  0.0000,  0.0000)
   4 H     16.322998    5.498242    7.534951    ( 0.0000,  0.0000,  0.0000)
   5 H      9.397209    6.678860    8.926213    ( 0.0000,  0.0000,  0.0000)
   6 H     10.116252    5.080358    9.287523    ( 0.0000,  0.0000,  0.0000)
   7 H      8.952317    5.240693    7.928494    ( 0.0000,  0.0000,  0.0000)
   8 H     17.819114    7.383592    8.085259    ( 0.0000,  0.0000,  0.0000)
   9 H     17.583265    8.823978    7.063266    ( 0.0000,  0.0000,  0.0000)
  10 H     17.736129    7.216266    6.315947    ( 0.0000,  0.0000,  0.0000)
  11 H     15.370958    7.971774    6.328865    ( 0.0000,  0.0000,  0.0000)
  12 O      9.950282    9.224075    6.706845    ( 0.0000,  0.0000,  0.0000)
  13 O     14.784700    5.925275    4.931872    ( 0.0000,  0.0000,  0.0000)
  14 O     14.477331    3.980635    6.550780    ( 0.0000,  0.0000,  0.0000)
  15 F      6.721674    5.939563    4.812239    ( 0.0000,  0.0000,  0.0000)
  16 F     15.463189    9.695500    8.273324    ( 0.0000,  0.0000,  0.0000)
  17 F     13.882348    8.212777    8.509131    ( 0.0000,  0.0000,  0.0000)
  18 F     15.762686    7.980380    9.613992    ( 0.0000,  0.0000,  0.0000)
  19 Cl     3.995092    6.888428    3.994359    ( 0.0000,  0.0000,  0.0000)
  20 Cl    12.717151    8.183000    4.942561    ( 0.0000,  0.0000,  0.0000)
  21 N      4.980310    9.129542    4.879778    ( 0.0000,  0.0000,  0.0000)
  22 C      9.822970    8.030332    6.455078    ( 0.0000,  0.0000,  0.0000)
  23 C      5.947134    9.884105    5.418727    ( 0.0000,  0.0000,  0.0000)
  24 C      5.258870    7.846517    4.690924    ( 0.0000,  0.0000,  0.0000)
  25 C      7.195281    9.414392    5.791509    ( 0.0000,  0.0000,  0.0000)
  26 C      6.479440    7.261983    5.023631    ( 0.0000,  0.0000,  0.0000)
  27 C     12.161835    7.054875    6.092411    ( 0.0000,  0.0000,  0.0000)
  28 C      7.488565    8.055251    5.593065    ( 0.0000,  0.0000,  0.0000)
  29 C     12.859167    5.951096    6.630575    ( 0.0000,  0.0000,  0.0000)
  30 C     12.022286    5.326914    7.544922    ( 0.0000,  0.0000,  0.0000)
  31 C     10.912742    7.063377    6.683113    ( 0.0000,  0.0000,  0.0000)
  32 N      8.689221    7.444503    5.911612    ( 0.0000,  0.0000,  0.0000)
  33 N     15.503367    6.136700    7.381688    ( 0.0000,  0.0000,  0.0000)
  34 N     10.854862    6.011540    7.579314    ( 0.0000,  0.0000,  0.0000)
  35 C      9.760377    5.738785    8.481120    ( 0.0000,  0.0000,  0.0000)
  36 C     17.327864    7.762771    7.176802    ( 0.0000,  0.0000,  0.0000)
  37 C     15.224547    8.359794    8.423559    ( 0.0000,  0.0000,  0.0000)
  38 C     15.827593    7.555841    7.249743    ( 0.0000,  0.0000,  0.0000)
  39 S     14.466222    5.407960    6.250872    ( 0.0000,  0.0000,  0.0000)

Unit cell:
           periodic     x           y           z      points  spacing
  1. axis:    no    21.818000    0.000000    0.000000   105     0.2078
  2. axis:    no     0.000000   14.939600    0.000000    70     0.2134
  3. axis:    no     0.000000    0.000000   13.610100    63     0.2160

  Lengths:  21.818000  14.939600  13.610100
  Angles:   90.000000  90.000000  90.000000

Effective grid spacing dv^(1/3) = 0.2124

                     log10-error:    total        iterations:
           time      wfs    density  energy       poisson
iter:   1  16:35:12  -2.74         -228.976244           
iter:   2  16:35:36  -4.10  -2.59  -228.973453           
iter:   3  16:35:59  -3.63  -2.62  -228.963040           
iter:   4  16:36:23  -5.09  -2.95  -228.963323           
iter:   5  16:36:47  -5.03  -2.94  -228.962519           
iter:   6  16:37:10  -4.49  -3.11  -228.962092           
iter:   7  16:37:33  -5.37  -3.33  -228.961846           
iter:   8  16:37:57  -5.87  -3.58  -228.961835           
iter:   9  16:38:20  -6.20  -3.85  -228.961839           
iter:  10  16:38:44  -6.22  -3.87  -228.961829           
iter:  11  16:39:07  -7.79  -4.24  -228.961828           

Converged after 11 iterations.

Dipole moment: (0.121506, -0.275329, 0.770498) |e|*Ang

Energy contributions relative to reference atoms: (reference = -73409.960314)

Kinetic:       +141.570399
Potential:     -136.775886
External:        +0.000000
XC:            -234.033052
Entropy (-ST):   +0.000000
Local:           +0.276711
--------------------------
Free energy:   -228.961828
Extrapolated:  -228.961828

 Band  Eigenvalues  Occupancy
    0    -32.36376    2.00000
    1    -31.27489    2.00000
    2    -30.20779    2.00000
    3    -30.13529    2.00000
    4    -27.56814    2.00000
    5    -26.60629    2.00000
    6    -25.71974    2.00000
    7    -24.78618    2.00000
    8    -24.48122    2.00000
    9    -24.08436    2.00000
   10    -23.08614    2.00000
   11    -21.93188    2.00000
   12    -21.27356    2.00000
   13    -20.36079    2.00000
   14    -20.25405    2.00000
   15    -19.28910    2.00000
   16    -18.90180    2.00000
   17    -18.54830    2.00000
   18    -17.81643    2.00000
   19    -17.04393    2.00000
   20    -16.93156    2.00000
   21    -16.13305    2.00000
   22    -15.97325    2.00000
   23    -15.42291    2.00000
   24    -15.08225    2.00000
   25    -14.47327    2.00000
   26    -14.34399    2.00000
   27    -13.93429    2.00000
   28    -13.88861    2.00000
   29    -13.81432    2.00000
   30    -13.55034    2.00000
   31    -13.33008    2.00000
   32    -13.06191    2.00000
   33    -12.41361    2.00000
   34    -12.32628    2.00000
   35    -11.96806    2.00000
   36    -11.83375    2.00000
   37    -11.71752    2.00000
   38    -11.67406    2.00000
   39    -11.27529    2.00000
   40    -11.19954    2.00000
   41    -11.13441    2.00000
   42    -10.81398    2.00000
   43    -10.64356    2.00000
   44    -10.50581    2.00000
   45    -10.49170    2.00000
   46    -10.42566    2.00000
   47    -10.31806    2.00000
   48    -10.17052    2.00000
   49    -10.16050    2.00000
   50     -9.99705    2.00000
   51     -9.95293    2.00000
   52     -9.91255    2.00000
   53     -9.82403    2.00000
   54     -9.71958    2.00000
   55     -9.37917    2.00000
   56     -9.32601    2.00000
   57     -9.19140    2.00000
   58     -8.94405    2.00000
   59     -8.78596    2.00000
   60     -8.55319    2.00000
   61     -8.49296    2.00000
   62     -8.19918    2.00000
   63     -7.83367    2.00000
   64     -7.77954    2.00000
   65     -7.42107    2.00000
   66     -7.28760    2.00000
   67     -7.20969    2.00000
   68     -7.10807    2.00000
   69     -6.75137    2.00000
   70     -6.43325    2.00000
   71     -6.30421    2.00000
   72     -6.13400    2.00000
   73     -6.07362    2.00000
   74     -6.01684    2.00000
   75     -5.69927    2.00000
   76     -5.40152    2.00000
   77     -2.17142    0.00000
   78     -1.31411    0.00000
   79     -1.07132    0.00000
   80     -0.83079    0.00000
   81     -0.74663    0.00000
   82     -0.29258    0.00000
   83     -0.09227    0.00000
   84     -0.08313    0.00000
   85      0.03893    0.00000
   86      0.19990    0.00000
   87      0.35133    0.00000
   88      0.44885    0.00000
   89      0.56276    0.00000
   90      0.59206    0.00000
   91      0.70252    0.00000
   92      0.78747    0.00000
   93      0.94003    0.00000
   94      0.94503    0.00000
   95      0.95727    0.00000
   96      1.08171    0.00000

Fermi level: -3.78647

Gap: 3.230 eV
Transition (v -> c):
  (s=0, k=0, n=76, [0.00, 0.00, 0.00]) -> (s=0, k=0, n=77, [0.00, 0.00, 0.00])

Forces in eV/Ang:
  0 H     0.00464   -0.03545   -0.00078
  1 H     0.17147   -0.06602    0.02977
  2 H     0.08916   -0.06308    0.08448
  3 H    -0.05172    0.07402   -0.05740
  4 H    -0.49442    0.36366   -0.07540
  5 H    -0.04135   -0.07966   -0.03013
  6 H    -0.04092    0.01761   -0.07328
  7 H    -0.25314   -0.05475    0.16960
  8 H     0.03175    0.00228    0.08522
  9 H     0.01554    0.07993    0.02352
 10 H    -0.02334   -0.00387   -0.10232
 11 H    -0.06010   -0.12686    0.09988
 12 O    -0.10049    0.29064   -0.09360
 13 O    -0.01076    0.15526   -0.34183
 14 O     0.66592    0.06622   -0.24720
 15 F    -0.13011    0.30666   -0.32908
 16 F    -0.10845   -0.27245   -0.39795
 17 F     0.11623   -0.11557   -0.22188
 18 F     0.02688   -0.03350   -0.06011
 19 Cl   -0.02165   -0.27250   -0.07812
 20 Cl   -0.05342    0.17626   -0.14246
 21 N    -0.24232    0.26898    0.04805
 22 C     0.03234   -0.20944    0.04610
 23 C     0.06072    0.20630    0.09047
 24 C    -0.05739   -0.24822   -0.03694
 25 C     0.09461    0.10857    0.07968
 26 C    -0.12377    0.03943   -0.06224
 27 C     0.06546    0.05330    0.01483
 28 C    -0.26133    0.05145   -0.08522
 29 C     0.31258    0.01130    0.15238
 30 C     0.28968   -0.02195    0.06428
 31 C    -0.10852    0.15680    0.02990
 32 N     0.23501    0.03694   -0.09421
 33 N    -0.12294   -0.24623    0.33199
 34 N    -0.04196   -0.03316   -0.17542
 35 C    -0.12972   -0.08167    0.03147
 36 C     0.26317   -0.01675   -0.02585
 37 C     0.14246   -0.04948   -0.10018
 38 C     0.01577    0.17520   -0.15582
 39 S     0.05949   -0.37317   -0.08545

System changes: positions 

Initializing position-dependent things.

Density initialized from wave functions
          .-----------------------------------------------------.  
         /|                                                     |  
        / |                                                     |  
       /  |                                                     |  
      /   |                                                     |  
     /    |                                                     |  
    /     |                                                     |  
   /      |                                                     |  
  /       |                                                     |  
 *        |                                  F                  |  
 |        |                             F   CF                  |  
 |        |                 HH                    H             |  
 |        |           H    H C O             C   CH             |  
 |        |           C C H   CNC H        NHH                  |  
 |        |        N    C  N       CC            H              |  
 |        |        C C     H         ClOS                       |  
 |        |          F                   O                      |  
 |        .----Cl-----------------------------------------------.  
 |       /                                                     /   
 |      /                                                     /    
 |     /                                                     /     
 |    /                                                     /      
 |   /                                                     /       
 |  /                                                     /        
 | /                                                     /         
 |/                                                     /          
 *-----------------------------------------------------*           

Positions:
   0 H      5.697850   10.941064    5.562477    ( 0.0000,  0.0000,  0.0000)
   1 H      7.935747   10.091328    6.226653    ( 0.0000,  0.0000,  0.0000)
   2 H     12.195955    4.453796    8.170082    ( 0.0000,  0.0000,  0.0000)
   3 H      8.767559    6.445826    5.670438    ( 0.0000,  0.0000,  0.0000)
   4 H     16.301977    5.512954    7.531652    ( 0.0000,  0.0000,  0.0000)
   5 H      9.392770    6.677585    8.926944    ( 0.0000,  0.0000,  0.0000)
   6 H     10.115183    5.079852    9.285541    ( 0.0000,  0.0000,  0.0000)
   7 H      8.935818    5.236335    7.937025    ( 0.0000,  0.0000,  0.0000)
   8 H     17.820774    7.383273    8.091602    ( 0.0000,  0.0000,  0.0000)
   9 H     17.584569    8.830166    7.064446    ( 0.0000,  0.0000,  0.0000)
  10 H     17.733563    7.215477    6.309452    ( 0.0000,  0.0000,  0.0000)
  11 H     15.364783    7.966297    6.331969    ( 0.0000,  0.0000,  0.0000)
  12 O      9.944438    9.236190    6.699728    ( 0.0000,  0.0000,  0.0000)
  13 O     14.783651    5.935160    4.912514    ( 0.0000,  0.0000,  0.0000)
  14 O     14.512386    3.968656    6.542155    ( 0.0000,  0.0000,  0.0000)
  15 F      6.716473    5.946632    4.793132    ( 0.0000,  0.0000,  0.0000)
  16 F     15.457542    9.685969    8.250768    ( 0.0000,  0.0000,  0.0000)
  17 F     13.885606    8.208160    8.497517    ( 0.0000,  0.0000,  0.0000)
  18 F     15.766945    7.977122    9.614564    ( 0.0000,  0.0000,  0.0000)
  19 Cl     3.991149    6.869733    3.988186    ( 0.0000,  0.0000,  0.0000)
  20 Cl    12.713633    8.192312    4.935110    ( 0.0000,  0.0000,  0.0000)
  21 N      4.973642    9.137182    4.883055    ( 0.0000,  0.0000,  0.0000)
  22 C      9.820824    8.032258    6.460590    ( 0.0000,  0.0000,  0.0000)
  23 C      5.948047    9.889954    5.421165    ( 0.0000,  0.0000,  0.0000)
  24 C      5.250119    7.848657    4.690262    ( 0.0000,  0.0000,  0.0000)
  25 C      7.197230    9.419830    5.794353    ( 0.0000,  0.0000,  0.0000)
  26 C      6.473551    7.269551    5.022173    ( 0.0000,  0.0000,  0.0000)
  27 C     12.170445    7.059048    6.087983    ( 0.0000,  0.0000,  0.0000)
  28 C      7.481315    8.061286    5.592436    ( 0.0000,  0.0000,  0.0000)
  29 C     12.870212    5.958741    6.641799    ( 0.0000,  0.0000,  0.0000)
  30 C     12.033685    5.325485    7.551433    ( 0.0000,  0.0000,  0.0000)
  31 C     10.915193    7.065430    6.687286    ( 0.0000,  0.0000,  0.0000)
  32 N      8.693740    7.444495    5.903054    ( 0.0000,  0.0000,  0.0000)
  33 N     15.491492    6.144021    7.405284    ( 0.0000,  0.0000,  0.0000)
  34 N     10.855294    6.001599    7.573249    ( 0.0000,  0.0000,  0.0000)
  35 C      9.757520    5.735791    8.477290    ( 0.0000,  0.0000,  0.0000)
  36 C     17.340204    7.762740    7.176031    ( 0.0000,  0.0000,  0.0000)
  37 C     15.230678    8.350417    8.416864    ( 0.0000,  0.0000,  0.0000)
  38 C     15.837588    7.552594    7.240719    ( 0.0000,  0.0000,  0.0000)
  39 S     14.470502    5.393918    6.234810    ( 0.0000,  0.0000,  0.0000)

Unit cell:
           periodic     x           y           z      points  spacing
  1. axis:    no    21.818000    0.000000    0.000000   105     0.2078
  2. axis:    no     0.000000   14.939600    0.000000    70     0.2134
  3. axis:    no     0.000000    0.000000   13.610100    63     0.2160

  Lengths:  21.818000  14.939600  13.610100
  Angles:   90.000000  90.000000  90.000000

Effective grid spacing dv^(1/3) = 0.2124

                     log10-error:    total        iterations:
           time      wfs    density  energy       poisson
iter:   1  16:39:48  -2.14         -229.082936           
iter:   2  16:40:12  -3.43  -2.40  -229.078807           
iter:   3  16:40:35  -3.23  -2.41  -229.050867           
iter:   4  16:40:58  -4.52  -2.76  -229.050782           
iter:   5  16:41:22  -4.02  -2.79  -229.051924           
iter:   6  16:41:45  -4.04  -2.89  -229.048790           
iter:   7  16:42:08  -4.89  -3.20  -229.048656           
iter:   8  16:42:31  -5.58  -3.32  -229.048579           
iter:   9  16:42:54  -5.73  -3.69  -229.048614           
iter:  10  16:43:18  -5.63  -3.66  -229.048581           
iter:  11  16:43:41  -6.83  -4.05  -229.048567           
iter:  12  16:44:05  -6.72  -4.13  -229.048565           
iter:  13  16:44:29  -6.60  -4.15  -229.048571           
iter:  14  16:44:51  -6.84  -4.26  -229.048565           
iter:  15  16:45:16  -7.20  -4.59  -229.048566           
iter:  16  16:45:39  -7.77  -4.60  -229.048565           

Converged after 16 iterations.

Dipole moment: (0.101198, -0.300509, 0.749727) |e|*Ang

Energy contributions relative to reference atoms: (reference = -73409.960314)

Kinetic:       +135.522952
Potential:     -132.320052
External:        +0.000000
XC:            -232.536244
Entropy (-ST):   +0.000000
Local:           +0.284779
--------------------------
Free energy:   -229.048565
Extrapolated:  -229.048565

 Band  Eigenvalues  Occupancy
    0    -32.29850    2.00000
    1    -31.22725    2.00000
    2    -30.15403    2.00000
    3    -30.08665    2.00000
    4    -27.52913    2.00000
    5    -26.51432    2.00000
    6    -25.66513    2.00000
    7    -24.82349    2.00000
    8    -24.41719    2.00000
    9    -24.02335    2.00000
   10    -23.05188    2.00000
   11    -21.91747    2.00000
   12    -21.23568    2.00000
   13    -20.36020    2.00000
   14    -20.24952    2.00000
   15    -19.23330    2.00000
   16    -18.87895    2.00000
   17    -18.56959    2.00000
   18    -17.80913    2.00000
   19    -17.01273    2.00000
   20    -16.90436    2.00000
   21    -16.13951    2.00000
   22    -15.97113    2.00000
   23    -15.38662    2.00000
   24    -15.09209    2.00000
   25    -14.46839    2.00000
   26    -14.29726    2.00000
   27    -13.90026    2.00000
   28    -13.83958    2.00000
   29    -13.79554    2.00000
   30    -13.51068    2.00000
   31    -13.27227    2.00000
   32    -12.98164    2.00000
   33    -12.41365    2.00000
   34    -12.33527    2.00000
   35    -11.93903    2.00000
   36    -11.80815    2.00000
   37    -11.70930    2.00000
   38    -11.65796    2.00000
   39    -11.27688    2.00000
   40    -11.19139    2.00000
   41    -11.13922    2.00000
   42    -10.82876    2.00000
   43    -10.67745    2.00000
   44    -10.48789    2.00000
   45    -10.46825    2.00000
   46    -10.37188    2.00000
   47    -10.30006    2.00000
   48    -10.17745    2.00000
   49    -10.13390    2.00000
   50     -9.99775    2.00000
   51     -9.92182    2.00000
   52     -9.90097    2.00000
   53     -9.80987    2.00000
   54     -9.71730    2.00000
   55     -9.33924    2.00000
   56     -9.30492    2.00000
   57     -9.21300    2.00000
   58     -8.91334    2.00000
   59     -8.77946    2.00000
   60     -8.51314    2.00000
   61     -8.46792    2.00000
   62     -8.20844    2.00000
   63     -7.85357    2.00000
   64     -7.76727    2.00000
   65     -7.42099    2.00000
   66     -7.29431    2.00000
   67     -7.25640    2.00000
   68     -7.16949    2.00000
   69     -6.76042    2.00000
   70     -6.46515    2.00000
   71     -6.34208    2.00000
   72     -6.15756    2.00000
   73     -6.07409    2.00000
   74     -6.03616    2.00000
   75     -5.72562    2.00000
   76     -5.41471    2.00000
   77     -2.19853    0.00000
   78     -1.33772    0.00000
   79     -1.10161    0.00000
   80     -0.86792    0.00000
   81     -0.76395    0.00000
   82     -0.34621    0.00000
   83     -0.14226    0.00000
   84     -0.10519    0.00000
   85      0.02386    0.00000
   86      0.19157    0.00000
   87      0.33092    0.00000
   88      0.44134    0.00000
   89      0.55463    0.00000
   90      0.62397    0.00000
   91      0.69875    0.00000
   92      0.75335    0.00000
   93      0.92366    0.00000
   94      0.93922    0.00000
   95      0.95424    0.00000
   96      1.07455    0.00000

Fermi level: -3.80662

Gap: 3.216 eV
Transition (v -> c):
  (s=0, k=0, n=76, [0.00, 0.00, 0.00]) -> (s=0, k=0, n=77, [0.00, 0.00, 0.00])

Forces in eV/Ang:
  0 H    -0.03357    0.18437    0.03170
  1 H     0.10892   -0.06200    0.00473
  2 H     0.12935   -0.14207    0.12509
  3 H    -0.02345   -0.08687   -0.08458
  4 H     0.05428   -0.01547    0.03146
  5 H     0.04051   -0.15492   -0.10017
  6 H    -0.05403    0.01555   -0.07784
  7 H    -0.08335    0.00955    0.16892
  8 H     0.05025    0.00983   -0.00317
  9 H     0.03412   -0.04598    0.01800
 10 H     0.09546    0.00570   -0.07198
 11 H    -0.02093   -0.08775   -0.04239
 12 O    -0.08949   -0.25006   -0.07630
 13 O    -0.09999   -0.15224    0.18993
 14 O     0.47240    0.09579   -0.33229
 15 F    -0.11660    0.41449   -0.21853
 16 F    -0.04017   -0.20608   -0.21971
 17 F     0.18942   -0.21435   -0.19066
 18 F    -0.06987    0.04131   -0.24045
 19 Cl    0.13101   -0.04666    0.03290
 20 Cl   -0.05089    0.08814   -0.07550
 21 N    -0.10650    0.00594    0.03815
 22 C     0.08396    0.14507   -0.05075
 23 C    -0.01878   -0.06452    0.02389
 24 C    -0.12163   -0.05781   -0.01843
 25 C     0.01639    0.10121    0.05487
 26 C    -0.18687   -0.12653   -0.16085
 27 C    -0.21863   -0.03409    0.31813
 28 C     0.17293   -0.18120   -0.01457
 29 C     0.27802   -0.13652   -0.08576
 30 C     0.03726    0.21997   -0.08961
 31 C     0.14348    0.08751   -0.09267
 32 N    -0.09432    0.41436   -0.07964
 33 N    -0.59946   -0.27330   -0.20779
 34 N    -0.00231    0.10524   -0.13894
 35 C    -0.19713   -0.08499    0.08379
 36 C     0.05533    0.01902   -0.06720
 37 C     0.07132    0.08538   -0.13307
 38 C    -0.13426    0.19925    0.24977
 39 S     0.30940    0.32734   -0.03881

System changes: positions 

Initializing position-dependent things.

Density initialized from wave functions
          .-----------------------------------------------------.  
         /|                                                     |  
        / |                                                     |  
       /  |                                                     |  
      /   |                                                     |  
     /    |                                                     |  
    /     |                                                     |  
   /      |                                                     |  
  /       |                                                     |  
 *        |                                  F                  |  
 |        |                             F   CF                  |  
 |        |                 HH                    H             |  
 |        |           H    H C O             C   CH             |  
 |        |           C C H   CNC H        NHH                  |  
 |        |        N    C  N       CC            H              |  
 |        |        C C     H         ClOS                       |  
 |        |          F                   O                      |  
 |        .----Cl-----------------------------------------------.  
 |       /                                                     /   
 |      /                                                     /    
 |     /                                                     /     
 |    /                                                     /      
 |   /                                                     /       
 |  /                                                     /        
 | /                                                     /         
 |/                                                     /          
 *-----------------------------------------------------*           

Positions:
   0 H      5.697469   10.943568    5.563132    ( 0.0000,  0.0000,  0.0000)
   1 H      7.944199   10.088730    6.228332    ( 0.0000,  0.0000,  0.0000)
   2 H     12.200130    4.450798    8.173960    ( 0.0000,  0.0000,  0.0000)
   3 H      8.765908    6.446388    5.667403    ( 0.0000,  0.0000,  0.0000)
   4 H     16.291652    5.520498    7.530409    ( 0.0000,  0.0000,  0.0000)
   5 H      9.390890    6.674513    8.925820    ( 0.0000,  0.0000,  0.0000)
   6 H     10.113775    5.079720    9.283305    ( 0.0000,  0.0000,  0.0000)
   7 H      8.925258    5.234020    7.944443    ( 0.0000,  0.0000,  0.0000)
   8 H     17.822520    7.383253    8.095063    ( 0.0000,  0.0000,  0.0000)
   9 H     17.585891    8.832892    7.065377    ( 0.0000,  0.0000,  0.0000)
  10 H     17.733700    7.215119    6.304660    ( 0.0000,  0.0000,  0.0000)
  11 H     15.360923    7.961917    6.332853    ( 0.0000,  0.0000,  0.0000)
  12 O      9.939609    9.236714    6.694139    ( 0.0000,  0.0000,  0.0000)
  13 O     14.781099    5.937562    4.906274    ( 0.0000,  0.0000,  0.0000)
  14 O     14.539244    3.961702    6.532469    ( 0.0000,  0.0000,  0.0000)
  15 F      6.711795    5.956655    4.778982    ( 0.0000,  0.0000,  0.0000)
  16 F     15.453832    9.677750    8.234789    ( 0.0000,  0.0000,  0.0000)
  17 F     13.890348    8.202117    8.487990    ( 0.0000,  0.0000,  0.0000)
  18 F     15.768276    7.975957    9.611073    ( 0.0000,  0.0000,  0.0000)
  19 Cl     3.991025    6.858526    3.985255    ( 0.0000,  0.0000,  0.0000)
  20 Cl    12.710723    8.198741    4.929901    ( 0.0000,  0.0000,  0.0000)
  21 N      4.968550    9.140574    4.885404    ( 0.0000,  0.0000,  0.0000)
  22 C      9.821157    8.038582    6.463323    ( 0.0000,  0.0000,  0.0000)
  23 C      5.948104    9.892062    5.422835    ( 0.0000,  0.0000,  0.0000)
  24 C      5.242822    7.850176    4.689705    ( 0.0000,  0.0000,  0.0000)
  25 C      7.198447    9.423662    5.796579    ( 0.0000,  0.0000,  0.0000)
  26 C      6.467591    7.271986    5.018933    ( 0.0000,  0.0000,  0.0000)
  27 C     12.172419    7.060938    6.090214    ( 0.0000,  0.0000,  0.0000)
  28 C      7.479867    8.062797    5.592013    ( 0.0000,  0.0000,  0.0000)
  29 C     12.880380    5.961000    6.646729    ( 0.0000,  0.0000,  0.0000)
  30 C     12.040396    5.328149    7.553766    ( 0.0000,  0.0000,  0.0000)
  31 C     10.918859    7.067642    6.688312    ( 0.0000,  0.0000,  0.0000)
  32 N      8.694599    7.449674    5.896636    ( 0.0000,  0.0000,  0.0000)
  33 N     15.475056    6.144556    7.415289    ( 0.0000,  0.0000,  0.0000)
  34 N     10.855429    5.997386    7.568017    ( 0.0000,  0.0000,  0.0000)
  35 C      9.753049    5.732867    8.476147    ( 0.0000,  0.0000,  0.0000)
  36 C     17.347714    7.763008    7.174566    ( 0.0000,  0.0000,  0.0000)
  37 C     15.235076    8.346289    8.410896    ( 0.0000,  0.0000,  0.0000)
  38 C     15.841188    7.553336    7.239815    ( 0.0000,  0.0000,  0.0000)
  39 S     14.478237    5.393942    6.223098    ( 0.0000,  0.0000,  0.0000)

Unit cell:
           periodic     x           y           z      points  spacing
  1. axis:    no    21.818000    0.000000    0.000000   105     0.2078
  2. axis:    no     0.000000   14.939600    0.000000    70     0.2134
  3. axis:    no     0.000000    0.000000   13.610100    63     0.2160

  Lengths:  21.818000  14.939600  13.610100
  Angles:   90.000000  90.000000  90.000000

Effective grid spacing dv^(1/3) = 0.2124

                     log10-error:    total        iterations:
           time      wfs    density  energy       poisson
iter:   1  16:46:20  -2.54         -229.103390           
iter:   2  16:46:44  -3.87  -2.55  -229.100900           
iter:   3  16:47:07  -3.73  -2.57  -229.089361           
iter:   4  16:47:29  -5.30  -2.88  -229.089630           
iter:   5  16:47:52  -4.71  -2.88  -229.088171           
iter:   6  16:48:15  -4.50  -3.13  -229.088053           
iter:   7  16:48:40  -5.21  -3.23  -229.087708           
iter:   8  16:49:03  -5.77  -3.49  -229.087672           
iter:   9  16:49:26  -6.17  -3.77  -229.087682           
iter:  10  16:49:49  -6.06  -3.77  -229.087662           
iter:  11  16:50:14  -7.77  -4.21  -229.087660           

Converged after 11 iterations.

Dipole moment: (0.125668, -0.293647, 0.751033) |e|*Ang

Energy contributions relative to reference atoms: (reference = -73409.960314)

Kinetic:       +134.117025
Potential:     -131.326041
External:        +0.000000
XC:            -232.145705
Entropy (-ST):   +0.000000
Local:           +0.267061
--------------------------
Free energy:   -229.087660
Extrapolated:  -229.087660

 Band  Eigenvalues  Occupancy
    0    -32.32229    2.00000
    1    -31.27486    2.00000
    2    -30.16232    2.00000
    3    -30.10738    2.00000
    4    -27.53778    2.00000
    5    -26.60143    2.00000
    6    -25.63498    2.00000
    7    -24.84177    2.00000
    8    -24.39156    2.00000
    9    -23.98244    2.00000
   10    -23.04729    2.00000
   11    -21.87384    2.00000
   12    -21.21197    2.00000
   13    -20.32174    2.00000
   14    -20.21025    2.00000
   15    -19.24908    2.00000
   16    -18.85927    2.00000
   17    -18.55089    2.00000
   18    -17.80099    2.00000
   19    -17.02377    2.00000
   20    -16.88087    2.00000
   21    -16.14666    2.00000
   22    -15.94732    2.00000
   23    -15.38911    2.00000
   24    -15.07075    2.00000
   25    -14.43612    2.00000
   26    -14.28905    2.00000
   27    -13.91446    2.00000
   28    -13.84603    2.00000
   29    -13.78176    2.00000
   30    -13.50366    2.00000
   31    -13.25686    2.00000
   32    -12.96171    2.00000
   33    -12.40103    2.00000
   34    -12.32171    2.00000
   35    -11.91298    2.00000
   36    -11.81783    2.00000
   37    -11.70718    2.00000
   38    -11.64304    2.00000
   39    -11.27146    2.00000
   40    -11.18768    2.00000
   41    -11.13047    2.00000
   42    -10.82291    2.00000
   43    -10.66743    2.00000
   44    -10.50038    2.00000
   45    -10.48578    2.00000
   46    -10.37388    2.00000
   47    -10.31555    2.00000
   48    -10.17095    2.00000
   49    -10.13917    2.00000
   50     -9.99509    2.00000
   51     -9.90592    2.00000
   52     -9.89834    2.00000
   53     -9.80558    2.00000
   54     -9.73053    2.00000
   55     -9.35603    2.00000
   56     -9.30380    2.00000
   57     -9.18728    2.00000
   58     -8.91209    2.00000
   59     -8.78162    2.00000
   60     -8.53155    2.00000
   61     -8.47357    2.00000
   62     -8.19678    2.00000
   63     -7.88781    2.00000
   64     -7.75874    2.00000
   65     -7.46839    2.00000
   66     -7.28927    2.00000
   67     -7.22613    2.00000
   68     -7.17425    2.00000
   69     -6.78822    2.00000
   70     -6.48408    2.00000
   71     -6.36066    2.00000
   72     -6.14443    2.00000
   73     -6.08542    2.00000
   74     -6.01112    2.00000
   75     -5.75488    2.00000
   76     -5.43424    2.00000
   77     -2.18460    0.00000
   78     -1.32348    0.00000
   79     -1.09540    0.00000
   80     -0.85812    0.00000
   81     -0.75730    0.00000
   82     -0.34748    0.00000
   83     -0.17162    0.00000
   84     -0.10550    0.00000
   85      0.00839    0.00000
   86      0.19420    0.00000
   87      0.32561    0.00000
   88      0.43747    0.00000
   89      0.55212    0.00000
   90      0.62821    0.00000
   91      0.70207    0.00000
   92      0.74395    0.00000
   93      0.92038    0.00000
   94      0.93850    0.00000
   95      0.95174    0.00000
   96      1.06508    0.00000

Fermi level: -3.80942

Gap: 3.250 eV
Transition (v -> c):
  (s=0, k=0, n=76, [0.00, 0.00, 0.00]) -> (s=0, k=0, n=77, [0.00, 0.00, 0.00])

Forces in eV/Ang:
  0 H    -0.03041    0.17368    0.03083
  1 H     0.05373   -0.04620   -0.01240
  2 H     0.10835   -0.00212    0.02089
  3 H    -0.01430    0.05651   -0.04440
  4 H     0.09518   -0.09134    0.05785
  5 H     0.04674   -0.12146   -0.09285
  6 H    -0.04168   -0.01602   -0.04260
  7 H    -0.03816    0.01075    0.12454
  8 H     0.05535    0.02133   -0.07613
  9 H     0.04849   -0.08250    0.00753
 10 H     0.13673    0.01873   -0.04186
 11 H     0.01954   -0.05882   -0.05444
 12 O     0.02303    0.24418    0.11505
 13 O     0.02575   -0.02789   -0.10610
 14 O     0.23543    0.47737   -0.44183
 15 F    -0.08044    0.20103   -0.13265
 16 F     0.02238   -0.02378   -0.05166
 17 F     0.12294   -0.26465   -0.16279
 18 F    -0.06263    0.07005   -0.29477
 19 Cl    0.15113    0.05301    0.06594
 20 Cl   -0.07860    0.00484    0.03284
 21 N    -0.01831   -0.05252    0.05462
 22 C     0.02044   -0.42270   -0.26320
 23 C    -0.09225   -0.07629    0.00573
 24 C    -0.06548    0.01090    0.01276
 25 C    -0.01808   -0.02605    0.01361
 26 C    -0.09154    0.09752   -0.08670
 27 C    -0.04267   -0.02787    0.24469
 28 C     0.06065   -0.12683   -0.06667
 29 C     0.07174   -0.08489   -0.19968
 30 C    -0.01340    0.06190   -0.02285
 31 C     0.01496    0.08005   -0.06586
 32 N    -0.04510    0.19856   -0.06808
 33 N    -0.39870   -0.16347   -0.29749
 34 N    -0.05972    0.13221   -0.00509
 35 C    -0.06034   -0.04955   -0.00195
 36 C    -0.10777   -0.04104   -0.03311
 37 C    -0.00917    0.06646   -0.12690
 38 C    -0.19227    0.07586    0.24821
 39 S     0.17584   -0.15011    0.50039

System changes: positions 

Initializing position-dependent things.

Density initialized from wave functions
          .-----------------------------------------------------.  
         /|                                                     |  
        / |                                                     |  
       /  |                                                     |  
      /   |                                                     |  
     /    |                                                     |  
    /     |                                                     |  
   /      |                                                     |  
  /       |                                                     |  
 *        |                                  F                  |  
 |        |                             F   CF                  |  
 |        |                 HH                    H             |  
 |        |           H    H C O             C   CH             |  
 |        |           C C H   CNC H        NHH                  |  
 |        |        N    C  N       CC            H              |  
 |        |        C C     H         ClOS                       |  
 |        |          F                   O                      |  
 |        .----Cl-----------------------------------------------.  
 |       /                                                     /   
 |      /                                                     /    
 |     /                                                     /     
 |    /                                                     /      
 |   /                                                     /       
 |  /                                                     /        
 | /                                                     /         
 |/                                                     /          
 *-----------------------------------------------------*           

Positions:
   0 H      5.696819   10.947535    5.563980    ( 0.0000,  0.0000,  0.0000)
   1 H      7.950369   10.086640    6.229259    ( 0.0000,  0.0000,  0.0000)
   2 H     12.204310    4.449625    8.176202    ( 0.0000,  0.0000,  0.0000)
   3 H      8.764496    6.449497    5.665257    ( 0.0000,  0.0000,  0.0000)
   4 H     16.286174    5.523998    7.530515    ( 0.0000,  0.0000,  0.0000)
   5 H      9.390425    6.670861    8.923722    ( 0.0000,  0.0000,  0.0000)
   6 H     10.112291    5.079252    9.281378    ( 0.0000,  0.0000,  0.0000)
   7 H      8.918093    5.232688    7.950879    ( 0.0000,  0.0000,  0.0000)
   8 H     17.824493    7.383640    8.095764    ( 0.0000,  0.0000,  0.0000)
   9 H     17.587530    8.833271    7.066038    ( 0.0000,  0.0000,  0.0000)
  10 H     17.736029    7.215249    6.301099    ( 0.0000,  0.0000,  0.0000)
  11 H     15.358997    7.958281    6.332700    ( 0.0000,  0.0000,  0.0000)
  12 O      9.937082    9.239849    6.692504    ( 0.0000,  0.0000,  0.0000)
  13 O     14.779869    5.938272    4.901524    ( 0.0000,  0.0000,  0.0000)
  14 O     14.558996    3.964245    6.519639    ( 0.0000,  0.0000,  0.0000)
  15 F      6.707682    5.965106    4.768238    ( 0.0000,  0.0000,  0.0000)
  16 F     15.452055    9.672897    8.224482    ( 0.0000,  0.0000,  0.0000)
  17 F     13.894988    8.193997    8.479474    ( 0.0000,  0.0000,  0.0000)
  18 F     15.768200    7.976394    9.604147    ( 0.0000,  0.0000,  0.0000)
  19 Cl     3.993309    6.852543    3.984504    ( 0.0000,  0.0000,  0.0000)
  20 Cl    12.707399    8.202455    4.927622    ( 0.0000,  0.0000,  0.0000)
  21 N      4.965082    9.141127    4.887578    ( 0.0000,  0.0000,  0.0000)
  22 C      9.822080    8.037386    6.460969    ( 0.0000,  0.0000,  0.0000)
  23 C      5.946566    9.892946    5.424140    ( 0.0000,  0.0000,  0.0000)
  24 C      5.237226    7.851910    4.689683    ( 0.0000,  0.0000,  0.0000)
  25 C      7.199024    9.423849    5.797818    ( 0.0000,  0.0000,  0.0000)
  26 C      6.463330    7.275978    5.016053    ( 0.0000,  0.0000,  0.0000)
  27 C     12.174795    7.061940    6.094435    ( 0.0000,  0.0000,  0.0000)
  28 C      7.477782    8.063915    5.590315    ( 0.0000,  0.0000,  0.0000)
  29 C     12.887046    5.961187    6.646570    ( 0.0000,  0.0000,  0.0000)
  30 C     12.044670    5.329744    7.555329    ( 0.0000,  0.0000,  0.0000)
  31 C     10.919725    7.070400    6.688323    ( 0.0000,  0.0000,  0.0000)
  32 N      8.695709    7.452249    5.891229    ( 0.0000,  0.0000,  0.0000)
  33 N     15.460163    6.142260    7.417399    ( 0.0000,  0.0000,  0.0000)
  34 N     10.853945    5.996781    7.565361    ( 0.0000,  0.0000,  0.0000)
  35 C      9.749969    5.730432    8.474931    ( 0.0000,  0.0000,  0.0000)
  36 C     17.350323    7.762158    7.173331    ( 0.0000,  0.0000,  0.0000)
  37 C     15.237424    8.344590    8.405188    ( 0.0000,  0.0000,  0.0000)
  38 C     15.839980    7.554617    7.242652    ( 0.0000,  0.0000,  0.0000)
  39 S     14.485536    5.392819    6.222527    ( 0.0000,  0.0000,  0.0000)

Unit cell:
           periodic     x           y           z      points  spacing
  1. axis:    no    21.818000    0.000000    0.000000   105     0.2078
  2. axis:    no     0.000000   14.939600    0.000000    70     0.2134
  3. axis:    no     0.000000    0.000000   13.610100    63     0.2160

  Lengths:  21.818000  14.939600  13.610100
  Angles:   90.000000  90.000000  90.000000

Effective grid spacing dv^(1/3) = 0.2124

                     log10-error:    total        iterations:
           time      wfs    density  energy       poisson
iter:   1  16:50:55  -2.80         -229.127530           
iter:   2  16:51:20  -4.16  -2.62  -229.125217           
iter:   3  16:51:44  -3.55  -2.65  -229.116590           
iter:   4  16:52:07  -4.94  -2.99  -229.116153           
iter:   5  16:52:30  -4.90  -3.03  -229.115967           
iter:   6  16:52:54  -4.65  -3.13  -229.115262           
iter:   7  16:53:17  -5.76  -3.39  -229.115190           
iter:   8  16:53:39  -6.25  -3.59  -229.115165           
iter:   9  16:54:03  -6.37  -3.83  -229.115163           
iter:  10  16:54:27  -6.11  -3.92  -229.115157           
iter:  11  16:54:51  -7.72  -4.22  -229.115155           

Converged after 11 iterations.

Dipole moment: (0.146195, -0.300448, 0.768379) |e|*Ang

Energy contributions relative to reference atoms: (reference = -73409.960314)

Kinetic:       +133.897151
Potential:     -131.150529
External:        +0.000000
XC:            -232.112250
Entropy (-ST):   +0.000000
Local:           +0.250472
--------------------------
Free energy:   -229.115155
Extrapolated:  -229.115155

 Band  Eigenvalues  Occupancy
    0    -32.37419    2.00000
    1    -31.29832    2.00000
    2    -30.20202    2.00000
    3    -30.14083    2.00000
    4    -27.56557    2.00000
    5    -26.54571    2.00000
    6    -25.58680    2.00000
    7    -24.84514    2.00000
    8    -24.37140    2.00000
    9    -23.97302    2.00000
   10    -23.07506    2.00000
   11    -21.83254    2.00000
   12    -21.21692    2.00000
   13    -20.30640    2.00000
   14    -20.19177    2.00000
   15    -19.29967    2.00000
   16    -18.85294    2.00000
   17    -18.53853    2.00000
   18    -17.78638    2.00000
   19    -17.04672    2.00000
   20    -16.87057    2.00000
   21    -16.15133    2.00000
   22    -15.94167    2.00000
   23    -15.41102    2.00000
   24    -15.07025    2.00000
   25    -14.42598    2.00000
   26    -14.29410    2.00000
   27    -13.93906    2.00000
   28    -13.87475    2.00000
   29    -13.77811    2.00000
   30    -13.50238    2.00000
   31    -13.25674    2.00000
   32    -12.97342    2.00000
   33    -12.39680    2.00000
   34    -12.31580    2.00000
   35    -11.89008    2.00000
   36    -11.82543    2.00000
   37    -11.71148    2.00000
   38    -11.63992    2.00000
   39    -11.26303    2.00000
   40    -11.17456    2.00000
   41    -11.11343    2.00000
   42    -10.81820    2.00000
   43    -10.64603    2.00000
   44    -10.51914    2.00000
   45    -10.47936    2.00000
   46    -10.39631    2.00000
   47    -10.29412    2.00000
   48    -10.16890    2.00000
   49    -10.15192    2.00000
   50     -9.98238    2.00000
   51     -9.89616    2.00000
   52     -9.88490    2.00000
   53     -9.80403    2.00000
   54     -9.73082    2.00000
   55     -9.37914    2.00000
   56     -9.31629    2.00000
   57     -9.17635    2.00000
   58     -8.92336    2.00000
   59     -8.78187    2.00000
   60     -8.51142    2.00000
   61     -8.49287    2.00000
   62     -8.17035    2.00000
   63     -7.90071    2.00000
   64     -7.74998    2.00000
   65     -7.45054    2.00000
   66     -7.29268    2.00000
   67     -7.25731    2.00000
   68     -7.18063    2.00000
   69     -6.77211    2.00000
   70     -6.48860    2.00000
   71     -6.36976    2.00000
   72     -6.14273    2.00000
   73     -6.07255    2.00000
   74     -5.99700    2.00000
   75     -5.77200    2.00000
   76     -5.42682    2.00000
   77     -2.18664    0.00000
   78     -1.32044    0.00000
   79     -1.09423    0.00000
   80     -0.84567    0.00000
   81     -0.74570    0.00000
   82     -0.34098    0.00000
   83     -0.17452    0.00000
   84     -0.10243    0.00000
   85      0.00288    0.00000
   86      0.19687    0.00000
   87      0.32472    0.00000
   88      0.43929    0.00000
   89      0.55429    0.00000
   90      0.62451    0.00000
   91      0.70744    0.00000
   92      0.75518    0.00000
   93      0.92101    0.00000
   94      0.93858    0.00000
   95      0.94881    0.00000
   96      1.05479    0.00000

Fermi level: -3.80673

Gap: 3.240 eV
Transition (v -> c):
  (s=0, k=0, n=76, [0.00, 0.00, 0.00]) -> (s=0, k=0, n=77, [0.00, 0.00, 0.00])

Forces in eV/Ang:
  0 H    -0.01558    0.08153    0.01960
  1 H    -0.01644   -0.08010   -0.04451
  2 H     0.08494    0.07077   -0.02532
  3 H    -0.00708   -0.00629   -0.06140
  4 H    -0.02482   -0.04545    0.06745
  5 H     0.02468   -0.05764   -0.05764
  6 H    -0.02743   -0.03949   -0.01553
  7 H    -0.03197   -0.00795    0.06813
  8 H     0.05334    0.02075   -0.11009
  9 H     0.03673   -0.10790    0.00123
 10 H     0.11891    0.03551    0.00027
 11 H     0.04452   -0.04234   -0.02617
 12 O     0.03994   -0.02740    0.08704
 13 O     0.03987   -0.06314    0.05838
 14 O     0.09835    0.24300   -0.28554
 15 F    -0.05420    0.06556   -0.05245
 16 F     0.03934    0.10161    0.04979
 17 F     0.00313   -0.29788   -0.14680
 18 F    -0.00340    0.06191   -0.27272
 19 Cl    0.10390    0.07391    0.05592
 20 Cl   -0.08274   -0.05828    0.09591
 21 N    -0.01491    0.03757    0.07700
 22 C    -0.02356   -0.08290   -0.23458
 23 C    -0.07554   -0.03335    0.02767
 24 C     0.01205   -0.00511    0.03127
 25 C    -0.07205    0.05731    0.00622
 26 C    -0.04276    0.13983   -0.06453
 27 C     0.02732    0.03915    0.11535
 28 C     0.10383   -0.12770   -0.05969
 29 C    -0.10652   -0.10541   -0.11044
 30 C    -0.09543    0.06516   -0.04569
 31 C     0.05288   -0.03646   -0.01935
 32 N    -0.09362    0.18639   -0.07294
 33 N     0.01432   -0.10879   -0.16630
 34 N     0.02965    0.05276    0.03153
 35 C     0.02479   -0.03317   -0.03462
 36 C    -0.17456   -0.08471   -0.01512
 37 C    -0.07512    0.03229   -0.11305
 38 C    -0.16262   -0.05742    0.03258
 39 S     0.03105    0.15269    0.13139

System changes: positions 

Initializing position-dependent things.

Density initialized from wave functions
          .-----------------------------------------------------.  
         /|                                                     |  
        / |                                                     |  
       /  |                                                     |  
      /   |                                                     |  
     /    |                                                     |  
    /     |                                                     |  
   /      |                                                     |  
  /       |                                                     |  
 *        |                                  F                  |  
 |        |                             F   CF                  |  
 |        |                 HH                    H             |  
 |        |           H    H C O             C   CH             |  
 |        |           C C H   CNC H        NHH                  |  
 |        |        N    C  N       CC            H              |  
 |        |        C C     H         ClOS                       |  
 |        |          F                   O                      |  
 |        .----Cl-----------------------------------------------.  
 |       /                                                     /   
 |      /                                                     /    
 |     /                                                     /     
 |    /                                                     /      
 |   /                                                     /       
 |  /                                                     /        
 | /                                                     /         
 |/                                                     /          
 *-----------------------------------------------------*           

Positions:
   0 H      5.696102   10.951563    5.564888    ( 0.0000,  0.0000,  0.0000)
   1 H      7.953539   10.083714    6.228804    ( 0.0000,  0.0000,  0.0000)
   2 H     12.208662    4.450407    8.177009    ( 0.0000,  0.0000,  0.0000)
   3 H      8.763415    6.451653    5.662760    ( 0.0000,  0.0000,  0.0000)
   4 H     16.282125    5.525333    7.532024    ( 0.0000,  0.0000,  0.0000)
   5 H      9.390833    6.667298    8.921095    ( 0.0000,  0.0000,  0.0000)
   6 H     10.110759    5.078185    9.279807    ( 0.0000,  0.0000,  0.0000)
   7 H      8.913405    5.231818    7.956151    ( 0.0000,  0.0000,  0.0000)
   8 H     17.826823    7.384353    8.093625    ( 0.0000,  0.0000,  0.0000)
   9 H     17.589264    8.830992    7.066452    ( 0.0000,  0.0000,  0.0000)
  10 H     17.740088    7.216150    6.299102    ( 0.0000,  0.0000,  0.0000)
  11 H     15.359041    7.955144    6.332170    ( 0.0000,  0.0000,  0.0000)
  12 O      9.936321    9.239046    6.693139    ( 0.0000,  0.0000,  0.0000)
  13 O     14.779678    5.936512    4.901662    ( 0.0000,  0.0000,  0.0000)
  14 O     14.572693    3.970566    6.506019    ( 0.0000,  0.0000,  0.0000)
  15 F      6.703978    5.972003    4.760913    ( 0.0000,  0.0000,  0.0000)
  16 F     15.451875    9.672036    8.219655    ( 0.0000,  0.0000,  0.0000)
  17 F     13.897935    8.182583    8.471237    ( 0.0000,  0.0000,  0.0000)
  18 F     15.767917    7.978096    9.593882    ( 0.0000,  0.0000,  0.0000)
  19 Cl     3.997097    6.850922    3.985416    ( 0.0000,  0.0000,  0.0000)
  20 Cl    12.703616    8.203262    4.928438    ( 0.0000,  0.0000,  0.0000)
  21 N      4.962292    9.142279    4.890392    ( 0.0000,  0.0000,  0.0000)
  22 C      9.822655    8.036689    6.454773    ( 0.0000,  0.0000,  0.0000)
  23 C      5.944201    9.893228    5.425726    ( 0.0000,  0.0000,  0.0000)
  24 C      5.234390    7.852254    4.690299    ( 0.0000,  0.0000,  0.0000)
  25 C      7.197986    9.424720    5.798652    ( 0.0000,  0.0000,  0.0000)
  26 C      6.460059    7.280910    5.012869    ( 0.0000,  0.0000,  0.0000)
  27 C     12.176800    7.063400    6.099531    ( 0.0000,  0.0000,  0.0000)
  28 C      7.478072    8.062332    5.587801    ( 0.0000,  0.0000,  0.0000)
  29 C     12.888864    5.958423    6.643994    ( 0.0000,  0.0000,  0.0000)
  30 C     12.045315    5.332169    7.555015    ( 0.0000,  0.0000,  0.0000)
  31 C     10.920667    7.071499    6.687839    ( 0.0000,  0.0000,  0.0000)
  32 N      8.694961    7.456909    5.886487    ( 0.0000,  0.0000,  0.0000)
[...]
   24    -15.06830    2.00000
   25    -14.42611    2.00000
   26    -14.31145    2.00000
   27    -13.94213    2.00000
   28    -13.90154    2.00000
   29    -13.78620    2.00000
   30    -13.50882    2.00000
   31    -13.27674    2.00000
   32    -13.09104    2.00000
   33    -12.39931    2.00000
   34    -12.31564    2.00000
   35    -11.86191    2.00000
   36    -11.83116    2.00000
   37    -11.70847    2.00000
   38    -11.64541    2.00000
   39    -11.28039    2.00000
   40    -11.18874    2.00000
   41    -11.12814    2.00000
   42    -10.81574    2.00000
   43    -10.61082    2.00000
   44    -10.53247    2.00000
   45    -10.49223    2.00000
   46    -10.42582    2.00000
   47    -10.27942    2.00000
   48    -10.16226    2.00000
   49    -10.13539    2.00000
   50     -9.96085    2.00000
   51     -9.88295    2.00000
   52     -9.87587    2.00000
   53     -9.78976    2.00000
   54     -9.72301    2.00000
   55     -9.41315    2.00000
   56     -9.31433    2.00000
   57     -9.17299    2.00000
   58     -8.94062    2.00000
   59     -8.79921    2.00000
   60     -8.51384    2.00000
   61     -8.49724    2.00000
   62     -8.15808    2.00000
   63     -7.87660    2.00000
   64     -7.76252    2.00000
   65     -7.42244    2.00000
   66     -7.30177    2.00000
   67     -7.20340    2.00000
   68     -7.15702    2.00000
   69     -6.78243    2.00000
   70     -6.49713    2.00000
   71     -6.37565    2.00000
   72     -6.13859    2.00000
   73     -6.07218    2.00000
   74     -6.00608    2.00000
   75     -5.73664    2.00000
   76     -5.38235    2.00000
   77     -2.17202    0.00000
   78     -1.31583    0.00000
   79     -1.07368    0.00000
   80     -0.81752    0.00000
   81     -0.73446    0.00000
   82     -0.30349    0.00000
   83     -0.14308    0.00000
   84     -0.12650    0.00000
   85      0.01336    0.00000
   86      0.20353    0.00000
   87      0.31355    0.00000
   88      0.44528    0.00000
   89      0.55856    0.00000
   90      0.61362    0.00000
   91      0.71448    0.00000
   92      0.78195    0.00000
   93      0.91712    0.00000
   94      0.94343    0.00000
   95      0.96173    0.00000
   96      1.01554    0.00000

Fermi level: -3.77718

Gap: 3.210 eV
Transition (v -> c):
  (s=0, k=0, n=76, [0.00, 0.00, 0.00]) -> (s=0, k=0, n=77, [0.00, 0.00, 0.00])

Forces in eV/Ang:
  0 H    -0.00122   -0.03621   -0.01116
  1 H    -0.01938   -0.01125    0.00018
  2 H    -0.02138    0.00753   -0.00904
  3 H    -0.00639    0.00422    0.00320
  4 H     0.01382    0.01332    0.02107
  5 H    -0.00907    0.01094    0.00991
  6 H     0.01607   -0.02042    0.01089
  7 H    -0.01395   -0.01206   -0.01798
  8 H    -0.01811   -0.01537   -0.02326
  9 H    -0.00299   -0.00971   -0.00363
 10 H    -0.02265    0.00025    0.00765
 11 H    -0.01045   -0.01238   -0.02508
 12 O    -0.01063   -0.01232   -0.00482
 13 O     0.00983   -0.00291   -0.01531
 14 O     0.01742   -0.00659    0.00410
 15 F    -0.00186   -0.00199    0.00125
 16 F     0.00744   -0.00340    0.01727
 17 F    -0.00207    0.01136    0.01340
 18 F    -0.02470   -0.00813   -0.01481
 19 Cl   -0.01106   -0.02095   -0.01217
 20 Cl   -0.01328   -0.02362    0.01002
 21 N     0.01462    0.00572    0.00878
 22 C     0.01839   -0.00579    0.00745
 23 C     0.00646    0.01156    0.00031
 24 C    -0.00221    0.02104   -0.00163
 25 C    -0.00707    0.00932    0.00071
 26 C     0.00218   -0.01087    0.00408
 27 C     0.00963   -0.00302   -0.01458
 28 C    -0.02339    0.03026    0.00694
 29 C    -0.01723    0.01898   -0.01657
 30 C     0.02448    0.01673    0.00752
 31 C     0.01469   -0.01444    0.01345
 32 N     0.02198   -0.01267    0.01442
 33 N     0.00629   -0.00248    0.01652
 34 N     0.03135   -0.02627   -0.02439
 35 C    -0.01522   -0.00143    0.00145
 36 C    -0.00417    0.00278    0.00287
 37 C    -0.00496    0.00143   -0.01751
 38 C     0.01028   -0.03194   -0.03912
 39 S    -0.05441   -0.00452   -0.03375

System changes: positions 

Initializing position-dependent things.

Density initialized from wave functions
          .-----------------------------------------------------.  
         /|                                                     |  
        / |                                                     |  
       /  |                                                     |  
      /   |                                                     |  
     /    |                                                     |  
    /     |                                                     |  
   /      |                                                     |  
  /       |                                                     |  
 *        |                                  F                  |  
 |        |                                  F                  |  
 |        |                 HH          F   C                   |  
 |        |           H    H C O                 CH             |  
 |        |           C C H   CNC H        NHC                  |  
 |        |        N    C  N       CC            H              |  
 |        |        C C     H         Cl S                       |  
 |        |          F                 O O                      |  
 |        .----Cl-----------------------------------------------.  
 |       /                                                     /   
 |      /                                                     /    
 |     /                                                     /     
 |    /                                                     /      
 |   /                                                     /       
 |  /                                                     /        
 | /                                                     /         
 |/                                                     /          
 *-----------------------------------------------------*           

Positions:
   0 H      5.672960   10.997168    5.662784    ( 0.0000,  0.0000,  0.0000)
   1 H      7.955720   10.109536    6.219616    ( 0.0000,  0.0000,  0.0000)
   2 H     12.259795    4.462420    8.115464    ( 0.0000,  0.0000,  0.0000)
   3 H      8.728749    6.487755    5.557677    ( 0.0000,  0.0000,  0.0000)
   4 H     16.179701    5.477443    7.550449    ( 0.0000,  0.0000,  0.0000)
   5 H      9.395084    6.592384    8.920110    ( 0.0000,  0.0000,  0.0000)
   6 H     10.134002    4.995658    9.224009    ( 0.0000,  0.0000,  0.0000)
   7 H      8.928725    5.180282    7.916841    ( 0.0000,  0.0000,  0.0000)
   8 H     17.827516    7.283167    7.990919    ( 0.0000,  0.0000,  0.0000)
   9 H     17.607551    8.768219    7.032001    ( 0.0000,  0.0000,  0.0000)
  10 H     17.723626    7.194819    6.200445    ( 0.0000,  0.0000,  0.0000)
  11 H     15.357170    7.946864    6.262421    ( 0.0000,  0.0000,  0.0000)
  12 O      9.931069    9.217429    6.700279    ( 0.0000,  0.0000,  0.0000)
  13 O     14.774108    5.919187    4.799944    ( 0.0000,  0.0000,  0.0000)
  14 O     14.562467    3.981064    6.466715    ( 0.0000,  0.0000,  0.0000)
  15 F      6.656248    6.021445    4.754944    ( 0.0000,  0.0000,  0.0000)
  16 F     15.410300    9.644344    8.211496    ( 0.0000,  0.0000,  0.0000)
  17 F     13.890508    8.108210    8.441292    ( 0.0000,  0.0000,  0.0000)
  18 F     15.785052    7.922484    9.523897    ( 0.0000,  0.0000,  0.0000)
  19 Cl     3.930626    6.937287    4.044137    ( 0.0000,  0.0000,  0.0000)
  20 Cl    12.612950    8.180652    4.835752    ( 0.0000,  0.0000,  0.0000)
  21 N      4.925223    9.201699    4.957407    ( 0.0000,  0.0000,  0.0000)
  22 C      9.797783    8.025216    6.426299    ( 0.0000,  0.0000,  0.0000)
  23 C      5.918148    9.944228    5.484635    ( 0.0000,  0.0000,  0.0000)
  24 C      5.192576    7.917922    4.726381    ( 0.0000,  0.0000,  0.0000)
  25 C      7.182890    9.464765    5.803109    ( 0.0000,  0.0000,  0.0000)
  26 C      6.424821    7.335621    5.004545    ( 0.0000,  0.0000,  0.0000)
  27 C     12.122759    7.038633    6.015117    ( 0.0000,  0.0000,  0.0000)
  28 C      7.455134    8.107600    5.563763    ( 0.0000,  0.0000,  0.0000)
  29 C     12.849370    5.934334    6.530097    ( 0.0000,  0.0000,  0.0000)
  30 C     12.043172    5.317539    7.479404    ( 0.0000,  0.0000,  0.0000)
  31 C     10.885722    7.044254    6.642530    ( 0.0000,  0.0000,  0.0000)
  32 N      8.664426    7.476080    5.844864    ( 0.0000,  0.0000,  0.0000)
  33 N     15.409622    6.135769    7.332862    ( 0.0000,  0.0000,  0.0000)
  34 N     10.855265    5.984414    7.538754    ( 0.0000,  0.0000,  0.0000)
  35 C      9.762218    5.671820    8.443173    ( 0.0000,  0.0000,  0.0000)
  36 C     17.337965    7.703237    7.096778    ( 0.0000,  0.0000,  0.0000)
  37 C     15.225157    8.307159    8.346693    ( 0.0000,  0.0000,  0.0000)
  38 C     15.824244    7.531872    7.173165    ( 0.0000,  0.0000,  0.0000)
  39 S     14.467341    5.397313    6.131176    ( 0.0000,  0.0000,  0.0000)

Unit cell:
           periodic     x           y           z      points  spacing
  1. axis:    no    21.818000    0.000000    0.000000   105     0.2078
  2. axis:    no     0.000000   14.939600    0.000000    70     0.2134
  3. axis:    no     0.000000    0.000000   13.610100    63     0.2160

  Lengths:  21.818000  14.939600  13.610100
  Angles:   90.000000  90.000000  90.000000

Effective grid spacing dv^(1/3) = 0.2124

                     log10-error:    total        iterations:
           time      wfs    density  energy       poisson
iter:   1  19:15:59  -3.34         -229.246443           
iter:   2  19:16:22  -4.74  -2.96  -229.246230           
iter:   3  19:16:45  -4.64  -2.97  -229.244704           
iter:   4  19:17:10  -4.91  -3.26  -229.244652           
iter:   5  19:17:34  -5.33  -3.38  -229.244507           
iter:   6  19:17:59  -6.23  -3.68  -229.244501           
iter:   7  19:18:23  -6.31  -3.76  -229.244503           
iter:   8  19:18:47  -6.11  -3.91  -229.244497           
iter:   9  19:19:10  -7.02  -4.20  -229.244493           
iter:  10  19:19:33  -6.88  -4.27  -229.244493           
iter:  11  19:19:58  -7.29  -4.50  -229.244492           
iter:  12  19:20:22  -8.58  -4.73  -229.244492           

Converged after 12 iterations.

Dipole moment: (0.138864, -0.296980, 0.766259) |e|*Ang

Energy contributions relative to reference atoms: (reference = -73409.960314)

Kinetic:       +136.724452
Potential:     -133.175237
External:        +0.000000
XC:            -232.919546
Entropy (-ST):   +0.000000
Local:           +0.125839
--------------------------
Free energy:   -229.244492
Extrapolated:  -229.244492

 Band  Eigenvalues  Occupancy
    0    -32.40127    2.00000
    1    -31.29182    2.00000
    2    -30.20182    2.00000
    3    -30.17366    2.00000
    4    -27.56052    2.00000
    5    -26.53988    2.00000
    6    -25.56915    2.00000
    7    -24.81985    2.00000
    8    -24.39299    2.00000
    9    -23.99498    2.00000
   10    -23.14096    2.00000
   11    -21.84457    2.00000
   12    -21.25745    2.00000
   13    -20.30016    2.00000
   14    -20.19865    2.00000
   15    -19.31327    2.00000
   16    -18.83243    2.00000
   17    -18.53757    2.00000
   18    -17.76470    2.00000
   19    -17.06081    2.00000
   20    -16.88146    2.00000
   21    -16.15915    2.00000
   22    -15.94780    2.00000
   23    -15.45107    2.00000
   24    -15.06957    2.00000
   25    -14.42737    2.00000
   26    -14.30940    2.00000
   27    -13.94068    2.00000
   28    -13.90005    2.00000
   29    -13.78774    2.00000
   30    -13.50900    2.00000
   31    -13.27474    2.00000
   32    -13.08698    2.00000
   33    -12.39943    2.00000
   34    -12.31680    2.00000
   35    -11.86538    2.00000
   36    -11.83212    2.00000
   37    -11.70612    2.00000
   38    -11.64546    2.00000
   39    -11.27966    2.00000
   40    -11.18958    2.00000
   41    -11.12808    2.00000
   42    -10.81772    2.00000
   43    -10.61223    2.00000
   44    -10.53169    2.00000
   45    -10.49357    2.00000
   46    -10.42404    2.00000
   47    -10.28014    2.00000
   48    -10.16133    2.00000
   49    -10.13596    2.00000
   50     -9.96272    2.00000
   51     -9.88583    2.00000
   52     -9.87782    2.00000
   53     -9.79038    2.00000
   54     -9.72349    2.00000
   55     -9.41245    2.00000
   56     -9.31478    2.00000
   57     -9.17527    2.00000
   58     -8.93800    2.00000
   59     -8.79942    2.00000
   60     -8.51266    2.00000
   61     -8.49325    2.00000
   62     -8.16193    2.00000
   63     -7.87550    2.00000
   64     -7.76271    2.00000
   65     -7.42203    2.00000
   66     -7.30253    2.00000
   67     -7.20400    2.00000
   68     -7.15802    2.00000
   69     -6.78190    2.00000
   70     -6.49848    2.00000
   71     -6.37618    2.00000
   72     -6.14084    2.00000
   73     -6.07291    2.00000
   74     -6.00741    2.00000
   75     -5.73738    2.00000
   76     -5.38277    2.00000
   77     -2.17139    0.00000
   78     -1.31803    0.00000
   79     -1.07187    0.00000
   80     -0.81895    0.00000
   81     -0.73562    0.00000
   82     -0.30579    0.00000
   83     -0.14335    0.00000
   84     -0.12882    0.00000
   85      0.01374    0.00000
   86      0.20309    0.00000
   87      0.31142    0.00000
   88      0.44496    0.00000
   89      0.55807    0.00000
   90      0.61466    0.00000
   91      0.71389    0.00000
   92      0.78079    0.00000
   93      0.91629    0.00000
   94      0.94267    0.00000
   95      0.96237    0.00000
   96      1.01507    0.00000

Fermi level: -3.77708

Gap: 3.211 eV
Transition (v -> c):
  (s=0, k=0, n=76, [0.00, 0.00, 0.00]) -> (s=0, k=0, n=77, [0.00, 0.00, 0.00])

Forces in eV/Ang:
  0 H    -0.00350   -0.01931   -0.01327
  1 H    -0.00821   -0.00433    0.00623
  2 H    -0.02054    0.00473   -0.00488
  3 H    -0.00550    0.00251    0.00607
  4 H     0.02109    0.01509    0.02505
  5 H    -0.01003    0.00475    0.00717
  6 H     0.01047   -0.01163    0.00320
  7 H    -0.01707   -0.00763   -0.01123
  8 H    -0.01456   -0.01873   -0.02629
  9 H    -0.00271    0.00092    0.00191
 10 H    -0.01423   -0.00813    0.01222
 11 H    -0.00675   -0.01710   -0.02894
 12 O    -0.00650   -0.01000   -0.00596
 13 O     0.01306   -0.00033   -0.00201
 14 O     0.00585    0.00645    0.01427
 15 F    -0.00468   -0.00267    0.00182
 16 F     0.01115    0.00479    0.00303
 17 F    -0.00509    0.01660    0.00548
 18 F    -0.01996    0.00160   -0.00210
 19 Cl   -0.00055   -0.02281   -0.00648
 20 Cl   -0.02141   -0.02422   -0.00425
 21 N     0.00743    0.00247    0.01402
 22 C     0.01422   -0.00011   -0.00091
 23 C     0.01147    0.00141    0.00098
 24 C    -0.00041    0.00179   -0.00302
 25 C    -0.01511    0.00684    0.00551
 26 C    -0.00698   -0.00522   -0.00355
 27 C     0.00276   -0.00543   -0.00648
 28 C    -0.00882    0.01308    0.00709
 29 C    -0.00090    0.00455   -0.01076
 30 C     0.02645   -0.01358    0.00574
 31 C     0.01714   -0.01208   -0.00496
 32 N     0.00301   -0.00854    0.00246
 33 N     0.01061   -0.00623    0.00479
 34 N    -0.00383   -0.02319   -0.01085
 35 C    -0.00282   -0.01130   -0.00302
 36 C    -0.01327    0.00175   -0.00801
 37 C    -0.00561    0.00193   -0.01448
 38 C    -0.00839   -0.02367   -0.02926
 39 S    -0.03223   -0.00235   -0.03123

Timing:                                      incl.     excl.
-------------------------------------------------------------------
Density initialized from wave functions:   124.612   124.610   0.9% |
 Symmetrize density:                         0.002     0.002   0.0% |
Forces:                                    568.708   568.708   4.0% |-|
Hamiltonian:                                91.345     6.056   0.0% |
 Atomic:                                     2.326     0.078   0.0% |
  XC Correction:                             2.248     2.248   0.0% |
 Calculate atomic Hamiltonians:             48.524    48.524   0.3% |
 Communicate:                                5.408     5.408   0.0% |
 Initialize Hamiltonian:                     0.008     0.008   0.0% |
 Poisson:                                    0.210     0.210   0.0% |
 XC 3D grid:                                28.812    28.812   0.2% |
LCAO initialization:                         6.690     1.860   0.0% |
 LCAO eigensolver:                           0.120     0.001   0.0% |
  Calculate projections:                     0.000     0.000   0.0% |
  DenseAtomicCorrection:                     0.000     0.000   0.0% |
  Distribute overlap matrix:                 0.106     0.106   0.0% |
  Orbital Layouts:                           0.013     0.013   0.0% |
  Potential matrix:                          0.001     0.001   0.0% |
 LCAO to grid:                               4.561     4.561   0.0% |
 Set positions (LCAO WFS):                   0.148     0.095   0.0% |
  Basic WFS set positions:                   0.003     0.003   0.0% |
  Basis functions set positions:             0.001     0.001   0.0% |
  P tci:                                     0.001     0.001   0.0% |
  ST tci:                                    0.009     0.009   0.0% |
  mktci:                                     0.039     0.039   0.0% |
PWDescriptor:                                0.193     0.193   0.0% |
Redistribute:                                0.062     0.062   0.0% |
SCF-cycle:                               10019.586     1.054   0.0% |
 Davidson:                                7672.216  3158.195  22.3% |--------|
  Apply H:                                 933.422   930.256   6.6% |--|
   HMM T:                                    3.167     3.167   0.0% |
  Subspace diag:                          1153.197     0.221   0.0% |
   calc_h_matrix:                         1055.284    53.381   0.4% |
    Apply H:                              1001.902   998.342   7.0% |--|
     HMM T:                                  3.561     3.561   0.0% |
   diagonalize:                             13.710    13.710   0.1% |
   rotate_psi:                              83.982    83.982   0.6% |
  calc. matrices:                         2290.354   381.110   2.7% ||
   Apply H:                               1909.244  1902.716  13.4% |----|
    HMM T:                                   6.528     6.528   0.0% |
  diagonalize:                              15.101    15.101   0.1% |
  rotate_psi:                              121.948   121.948   0.9% |
 Density:                                 1317.806     0.030   0.0% |
  Atomic density matrices:                   1.962     1.962   0.0% |
  Mix:                                     740.675   740.675   5.2% |-|
  Multipole moments:                         0.281     0.281   0.0% |
  Pseudo density:                          574.858   574.829   4.1% |-|
   Symmetrize density:                       0.029     0.029   0.0% |
 Hamiltonian:                              951.635    67.794   0.5% |
  Atomic:                                   29.414     0.884   0.0% |
   XC Correction:                           28.530    28.530   0.2% |
  Calculate atomic Hamiltonians:           504.064   504.064   3.6% ||
  Communicate:                              68.559    68.559   0.5% |
  Poisson:                                   1.918     1.918   0.0% |
  XC 3D grid:                              279.885   279.885   2.0% ||
 Orthonormalize:                            76.875     0.046   0.0% |
  calc_s_matrix:                             5.052     5.052   0.0% |
  inverse-cholesky:                          0.802     0.802   0.0% |
  projections:                              68.004    68.004   0.5% |
  rotate_psi_s:                              2.972     2.972   0.0% |
Set symmetry:                                0.002     0.002   0.0% |
Other:                                    3357.986  3357.986  23.7% |--------|
-------------------------------------------------------------------
Total:                                             14169.184 100.0%

Memory usage: 994.79 MiB
Date: Fri Jul  2 20:15:22 2021
