9
Lattice="15.078 0.0 0.0 0.0 14.2171 0.0 0.0 0.0 14.5321" Properties=species:S:1:pos:R:3:forces:R:3:magmoms:R:1 energy=-44.954331235262714 dipole="-0.21677735340859902 -0.125901480579703 0.22934288309905804" magmom=0.0 free_energy=-44.954331235262714 pbc="F F F"
H        8.11806585       6.62877735       6.03448651      -0.00244586      -0.00309421      -0.00278211       0.00000000
H        9.03894453       8.17941511       8.22225680       0.00250093       0.00103918      -0.00617220       0.00000000
H        8.36936310       5.98164067       7.67201388       0.00179320       0.00039552      -0.00031032       0.00000000
C        8.07473487       6.88875155       7.10541031      -0.00200013      -0.00467252      -0.00137302       0.00000000
O        9.04268284       7.92436577       7.27189430      -0.00216308       0.00558430      -0.00334357       0.00000000
H        6.34911286       8.19178795       6.90520309      -0.00011706       0.00117464      -0.00255758       0.00000000
H        5.94834593       6.49786219       7.31937369      -0.00387325      -0.00025351      -0.00556772       0.00000000
H        6.61628188       7.58247562       8.56230303      -0.00037486      -0.00185295       0.00296133       0.00000000
C        6.66845108       7.31583100       7.49200369      -0.00238629      -0.00210736      -0.00113594       0.00000000
