53
Lattice="19.086199999999998 0.0 0.0 0.0 16.9129 0.0 0.0 0.0 16.1815" Properties=species:S:1:pos:R:3:forces:R:3:magmoms:R:1 energy=-321.26358981761337 dipole="0.3917459808787815 0.46949523578815 -0.017632265465717806" magmom=0.0 free_energy=-321.26358981761337 pbc="F F F"
H        4.09065769      12.99477273       7.83280959      -0.01201653       0.01800626       0.01147308       0.00000000
H        4.59004926      10.10743653       7.17122272      -0.02448331       0.03442120       0.01492829       0.00000000
H        5.62518693      10.24562685      11.03574176      -0.00641136      -0.00891144      -0.02957001       0.00000000
H       15.10021827       7.88341172       6.36129660      -0.00602301       0.00102990      -0.00124119       0.00000000
H       14.46863142       5.88862577       7.71903689       0.00284643       0.00425852       0.00962151       0.00000000
H       13.37272562       9.59096495       5.79740126      -0.00502716       0.00597679       0.01157045       0.00000000
H        7.67581631       3.99089624       5.40067216       0.00675220      -0.00722512      -0.01058604       0.00000000
H        3.99161043       6.12693663       6.04684258      -0.01800647       0.00559270       0.00063091       0.00000000
H       12.12598920       5.61193307       8.50773514       0.00094186       0.01320400       0.00216068       0.00000000
H       11.03205109       9.31501540       6.60629588       0.00356570       0.00314565       0.01750664       0.00000000
H        8.43211785       4.61565919       7.67808589      -0.02245482       0.00289042      -0.01241896       0.00000000
H        4.73343463       6.74147637       8.31929024       0.01269402      -0.01489600      -0.00666812       0.00000000
H        9.33704262       7.16995174       7.16870806       0.02462675      -0.02517023       0.00648737       0.00000000
H        9.92746721       6.26756876       8.57618135      -0.00785656       0.01989639      -0.00393749       0.00000000
H        6.46176836       5.64784132      10.30498290      -0.00216886       0.00990273      -0.01783795       0.00000000
H        8.12547346       5.62153023       9.71529696       0.00159273       0.00821246       0.00593880       0.00000000
H        9.93748890       9.54697673      10.50799391      -0.01229338       0.00145125      -0.00494486       0.00000000
H       11.18117613       8.36298800      10.05762237      -0.00155936       0.00383783       0.00866011       0.00000000
H        7.61225096       8.32454046       7.89906339       0.01746323       0.00474518       0.01533779       0.00000000
H        7.80555208       9.54028409       9.18289787       0.01175653       0.02396932      -0.02777796       0.00000000
H        9.75714773       6.50198727      10.94361807      -0.00153694      -0.00346211      -0.00177586       0.00000000
H        9.97347249       7.73149184      12.19256609       0.00634154       0.00479817      -0.00599978       0.00000000
H        7.79744714       8.73321568      11.73887631       0.02361448       0.00873473       0.00243312       0.00000000
H        7.54661285       7.00351924      12.02172714       0.00913933       0.00310455      -0.00223618       0.00000000
O        4.87698905      12.44661082       9.92184484      -0.02527735      -0.00444182       0.02012650       0.00000000
O        5.00542707       7.43882895      10.79144465       0.01923792       0.00395032      -0.01208753       0.00000000
Cl       5.26715026       4.61261819       3.98153258      -0.01693955      -0.01107288      -0.02665783       0.00000000
O        4.25125724      12.01945345       7.77734221      -0.00726281       0.02071543       0.02249997       0.00000000
O        4.88621628       9.48204217       7.87536488       0.01635095       0.00910443      -0.03497641       0.00000000
C        4.73351916      11.64991312       9.00714850      -0.00232437       0.02907351      -0.00485091       0.00000000
C        5.86527281       8.15677659      10.27779116       0.02993235       0.00380456       0.02922621       0.00000000
C        5.55934038       9.62138571      10.13881028      -0.00670407      -0.00312329       0.01423620       0.00000000
C        5.06960192      10.19969399       9.02411385       0.02589535       0.01492189      -0.02017303       0.00000000
C       14.07107009       7.76034094       6.71210715       0.00759390       0.00085798      -0.01142738       0.00000000
C       13.71781708       6.64507692       7.47113963      -0.00120655      -0.01390336       0.01701541       0.00000000
C       13.10231982       8.71873347       6.40085804      -0.00840451       0.01131430       0.00568250       0.00000000
C        7.03939290       4.60340554       6.04332765       0.01337384      -0.00172010       0.01140811       0.00000000
C        4.97111277       5.80603885       6.40852342      -0.00443801       0.00619277       0.01866412       0.00000000
C       12.40164716       6.49245698       7.91543767      -0.00301891      -0.00151008      -0.00252736       0.00000000
C       11.79041216       8.56286104       6.84734160       0.00681705       0.00225947      -0.00133298       0.00000000
C        7.45472628       4.96357773       7.32556970      -0.00291103       0.00707316       0.02989945       0.00000000
C        5.40283213       6.15194911       7.68853050       0.01497314      -0.00406125       0.02819946       0.00000000
C        5.79719396       5.03894124       5.58828928      -0.00529764      -0.00309314       0.01710308       0.00000000
C       11.42226685       7.44435369       7.60801595       0.00388694       0.00943354       0.01419223       0.00000000
C        6.66031826       5.75286110       8.17073242       0.00910049       0.00372715       0.01245444       0.00000000
N        9.48000621       8.37504064       8.84372806       0.01165615      -0.00422689      -0.00499188       0.00000000
C        9.98937569       7.25145518       8.05681771       0.00380197      -0.01864014      -0.00210500       0.00000000
C        7.14496839       6.10060799       9.56282151       0.00026009      -0.03124383      -0.00969340       0.00000000
C       10.09319878       8.50482307      10.16510332       0.00444857       0.01411381      -0.02423296       0.00000000
C        8.02319106       8.49034542       8.90901825      -0.00404836      -0.00026738       0.00868132       0.00000000
C        9.50987758       7.54546044      11.20779141       0.00305799      -0.00304432      -0.00717725       0.00000000
C        7.99725430       7.72720775      11.32084429      -0.02012159       0.00399815      -0.02278988       0.00000000
C        7.26210412       7.60224484       9.94128222       0.00288955      -0.01455781      -0.02280701       0.00000000
