
  ___ ___ ___ _ _ _  
 |   |   |_  | | | | 
 | | | | | . | | | | 
 |__ |  _|___|_____|  21.6.0
 |___|_|             

User:   hanguo02@comput119.ghddi.org
Date:   Wed Jul  7 22:42:17 2021
Arch:   x86_64
Pid:    5692
Python: 3.6.8
gpaw:   /home/hanguo02/.local/lib/python3.6/site-packages/gpaw
_gpaw:  /home/hanguo02/.local/lib/python3.6/site-packages/
        _gpaw.cpython-36m-x86_64-linux-gnu.so
ase:    /home/hanguo02/.local/lib/python3.6/site-packages/ase (version 3.22.0)
numpy:  /usr/lib64/python3.6/site-packages/numpy (version 1.16.2)
scipy:  /usr/lib64/python3.6/site-packages/scipy (version 1.2.1)
libxc:  4.2.0
units:  Angstrom and eV
cores: 32
OpenMP: False
OMP_NUM_THREADS: 1

Input parameters:
  mode: {ecut: 400.0,
         gammacentered: False,
         name: pw}
  xc: PBE

System changes: positions, numbers, cell, pbc, initial_charges, initial_magmoms 

Initialize ...

H-setup:
  name: Hydrogen
  id: d65de229564ff8ea4db303e23b6d1ecf
  Z: 1.0
  valence: 1
  core: 0
  charge: 0.0
  file: /home/hanguo02/Software/GPAW/gpaw-setups-0.9.20000/H.PBE.gz
  compensation charges: gauss, rc=0.15, lmax=2
  cutoffs: 0.85(filt), 0.53(core),
  valence states:
                energy  radius
    1s(1.00)    -6.494   0.476
    *s          20.717   0.476
    *p           0.000   0.476

  Using partial waves for H as LCAO basis

O-setup:
  name: Oxygen
  id: 32ecd46bf208036f09c70b0ec9a88b78
  Z: 8.0
  valence: 6
  core: 2
  charge: 0.0
  file: /home/hanguo02/Software/GPAW/gpaw-setups-0.9.20000/O.PBE.gz
  compensation charges: gauss, rc=0.21, lmax=2
  cutoffs: 1.17(filt), 0.83(core),
  valence states:
                energy  radius
    2s(2.00)   -23.961   0.688
    2p(4.00)    -9.029   0.598
    *s           3.251   0.688
    *p          18.182   0.598
    *d           0.000   0.619

  Using partial waves for O as LCAO basis

Cl-setup:
  name: Chlorine
  id: 726897f06f34e53cf8e33b5885a02604
  Z: 17.0
  valence: 7
  core: 10
  charge: 0.0
  file: /home/hanguo02/Software/GPAW/gpaw-setups-0.9.20000/Cl.PBE.gz
  compensation charges: gauss, rc=0.25, lmax=2
  cutoffs: 1.40(filt), 1.49(core),
  valence states:
                energy  radius
    3s(2.00)   -20.689   0.794
    3p(5.00)    -8.594   0.794
    *s           6.523   0.794
    *p          18.617   0.794
    *d           0.000   0.794

  Using partial waves for Cl as LCAO basis

C-setup:
  name: Carbon
  id: 4aa54d4b901d75f77cc0ea3eec22967b
  Z: 6.0
  valence: 4
  core: 2
  charge: 0.0
  file: /home/hanguo02/Software/GPAW/gpaw-setups-0.9.20000/C.PBE.gz
  compensation charges: gauss, rc=0.20, lmax=2
  cutoffs: 1.14(filt), 1.14(core),
  valence states:
                energy  radius
    2s(2.00)   -13.751   0.635
    2p(2.00)    -5.284   0.635
    *s          13.461   0.635
    *p          21.927   0.635
    *d           0.000   0.635

  Using partial waves for C as LCAO basis

N-setup:
  name: Nitrogen
  id: f7500608b86eaa90eef8b1d9a670dc53
  Z: 7.0
  valence: 5
  core: 2
  charge: 0.0
  file: /home/hanguo02/Software/GPAW/gpaw-setups-0.9.20000/N.PBE.gz
  compensation charges: gauss, rc=0.18, lmax=2
  cutoffs: 1.11(filt), 0.96(core),
  valence states:
                energy  radius
    2s(2.00)   -18.583   0.603
    2p(3.00)    -7.089   0.529
    *s           8.629   0.603
    *p          20.123   0.529
    *d           0.000   0.577

  Using partial waves for N as LCAO basis

Reference energy: -46135.290654

Spin-paired calculation

Convergence criteria:
  Maximum total energy change: 0.0005 eV / electron
  Maximum integral of absolute density change: 0.0001 electrons
  Maximum integral of absolute eigenstate change: 4e-08 eV^2
  Maximum number of iterations: 333

Symmetries present (total): 1

  ( 1  0  0)
  ( 0  1  0)
  ( 0  0  1)

1 k-point (Gamma)
1 k-point in the irreducible part of the Brillouin zone
       k-points in crystal coordinates                weights
   0:     0.00000000    0.00000000    0.00000000          1/1

Wave functions: Plane wave expansion
  Cutoff energy: 400.000 eV
  Number of coefficients: 94957 (reduced to 47479)
  Pulay-stress correction: 0.000000 eV/Ang^3 (de/decut=0.000000)
  Using Numpy's FFT
  ScaLapack parameters: grid=1x1, blocksize=None
  Wavefunction extrapolation:
    Improved wavefunction reuse through dual PAW basis 

Occupation numbers: width=0.000 eV 

Eigensolver
   Davidson(niter=2) 

Densities:
  Coarse grid: 90*80*75 grid
  Fine grid: 180*160*150 grid
  Total Charge: 0.000000 

Density mixing:
  Method: separate
  Backend: pulay
  Linear mixing parameter: 0.05
  Mixing with 5 old densities
  Damping of long wave oscillations: 50 

Hamiltonian:
  XC and Coulomb potentials evaluated on a 180*160*150 grid
  Using the PBE Exchange-Correlation functional
 

XC parameters: PBE with 2 nearest neighbor stencil

Memory estimate:
  Process memory now: 1406.19 MiB
  Calculator: 167.79 MiB
    Density: 11.02 MiB
      Arrays: 3.36 MiB
      Localized functions: 6.33 MiB
      Mixer: 1.33 MiB
    Hamiltonian: 2.39 MiB
      Arrays: 2.19 MiB
      XC: 0.00 MiB
      Poisson: 0.00 MiB
      vbar: 0.19 MiB
    Wavefunctions: 154.38 MiB
      Arrays psit_nG: 69.55 MiB
      Eigensolver: 73.88 MiB
      Projections: 0.01 MiB
      Projectors: 0.36 MiB
      PW-descriptor: 10.58 MiB

Total number of cores used: 32
Domain decomposition: 4 x 4 x 2

Number of atoms: 53
Number of atomic orbitals: 140
Number of bands in calculation: 96
Number of valence electrons: 152
Bands to converge: occupied

... initialized

Initializing position-dependent things.

Density initialized from atomic densities
Creating initial wave functions:
  96 bands from LCAO basis set

           .----------------------------------------------.  
          /|                                              |  
         / |                                              |  
        /  |                                              |  
       /   |                                              |  
      /    |                                              |  
     /     |                                              |  
    /      |                                              |  
   /       |                                              |  
  /        |                                              |  
 *         |        OH   H    H                           |  
 |         |            HC     H                          |  
 |         |      O C        C C                          |  
 |         |       OC  C  H  H   H                        |  
 |         |        H     C  N                            |  
 |         |      HO  C HH                                |  
 |         |     H           HC   HC                      |  
 |         |      C  C      H      C  CCH  H              |  
 |         |          C H                                 |  
 |         |  H  C                                        |  
 |         .------C--C------------------------------------.  
 |        /           H                                  /   
 |       /       Cl                                     /    
 |      /                                              /     
 |     /                                              /      
 |    /                                              /       
 |   /                                              /        
 |  /                                              /         
 | /                                              /          
 |/                                              /           
 *----------------------------------------------*            

Positions:
   0 H      4.131900   12.912900    7.851000    ( 0.0000,  0.0000,  0.0000)
   1 H      4.597200   10.077600    7.192500    ( 0.0000,  0.0000,  0.0000)
   2 H      5.647100   10.198400   11.071800    ( 0.0000,  0.0000,  0.0000)
   3 H     15.086200    7.884000    6.370700    ( 0.0000,  0.0000,  0.0000)
   4 H     14.459000    5.896900    7.715100    ( 0.0000,  0.0000,  0.0000)
   5 H     13.373900    9.587500    5.802600    ( 0.0000,  0.0000,  0.0000)
   6 H      7.678700    4.000000    5.417500    ( 0.0000,  0.0000,  0.0000)
   7 H      4.000000    6.133400    6.052900    ( 0.0000,  0.0000,  0.0000)
   8 H     12.136000    5.604800    8.494300    ( 0.0000,  0.0000,  0.0000)
   9 H     11.041100    9.310200    6.578500    ( 0.0000,  0.0000,  0.0000)
  10 H      8.422500    4.597800    7.678800    ( 0.0000,  0.0000,  0.0000)
  11 H      4.716500    6.727900    8.311500    ( 0.0000,  0.0000,  0.0000)
  12 H      9.390400    7.159200    7.133100    ( 0.0000,  0.0000,  0.0000)
  13 H      9.889200    6.314900    8.594500    ( 0.0000,  0.0000,  0.0000)
  14 H      6.468100    5.602200   10.259700    ( 0.0000,  0.0000,  0.0000)
  15 H      8.105100    5.636000    9.714400    ( 0.0000,  0.0000,  0.0000)
  16 H      9.963300    9.529500   10.522300    ( 0.0000,  0.0000,  0.0000)
  17 H     11.188600    8.358900   10.127000    ( 0.0000,  0.0000,  0.0000)
  18 H      7.593800    8.355500    7.902800    ( 0.0000,  0.0000,  0.0000)
  19 H      7.848800    9.552400    9.117300    ( 0.0000,  0.0000,  0.0000)
  20 H      9.746400    6.508700   10.954300    ( 0.0000,  0.0000,  0.0000)
  21 H      9.964000    7.741600   12.181500    ( 0.0000,  0.0000,  0.0000)
  22 H      7.811600    8.722300   11.767500    ( 0.0000,  0.0000,  0.0000)
  23 H      7.588200    7.006200   12.030100    ( 0.0000,  0.0000,  0.0000)
  24 O      4.875100   12.418600    9.901800    ( 0.0000,  0.0000,  0.0000)
  25 O      4.945500    7.476300   10.732400    ( 0.0000,  0.0000,  0.0000)
  26 Cl     5.280000    4.615600    4.000000    ( 0.0000,  0.0000,  0.0000)
  27 O      4.322800   11.952500    7.770200    ( 0.0000,  0.0000,  0.0000)
  28 O      4.953500    9.438900    7.846600    ( 0.0000,  0.0000,  0.0000)
  29 C      4.772900   11.615300    8.997000    ( 0.0000,  0.0000,  0.0000)
  30 C      5.834900    8.182000   10.249400    ( 0.0000,  0.0000,  0.0000)
  31 C      5.552100    9.632000   10.152600    ( 0.0000,  0.0000,  0.0000)
  32 C      5.104800   10.168200    9.011900    ( 0.0000,  0.0000,  0.0000)
  33 C     14.061900    7.759200    6.710700    ( 0.0000,  0.0000,  0.0000)
  34 C     13.708800    6.643100    7.467000    ( 0.0000,  0.0000,  0.0000)
  35 C     13.100700    8.716100    6.391100    ( 0.0000,  0.0000,  0.0000)
  36 C      7.038300    4.612600    6.045800    ( 0.0000,  0.0000,  0.0000)
  37 C      4.976500    5.809300    6.400800    ( 0.0000,  0.0000,  0.0000)
  38 C     12.393200    6.482000    7.905700    ( 0.0000,  0.0000,  0.0000)
  39 C     11.785400    8.556600    6.828400    ( 0.0000,  0.0000,  0.0000)
  40 C      7.458800    4.964100    7.331600    ( 0.0000,  0.0000,  0.0000)
  41 C      5.399900    6.158400    7.687100    ( 0.0000,  0.0000,  0.0000)
  42 C      5.800400    5.043900    5.582700    ( 0.0000,  0.0000,  0.0000)
  43 C     11.417300    7.439900    7.594100    ( 0.0000,  0.0000,  0.0000)
  44 C      6.658300    5.766600    8.161800    ( 0.0000,  0.0000,  0.0000)
  45 N      9.487300    8.381900    8.849200    ( 0.0000,  0.0000,  0.0000)
  46 C      9.983000    7.259400    8.051100    ( 0.0000,  0.0000,  0.0000)
  47 C      7.135900    6.122400    9.558500    ( 0.0000,  0.0000,  0.0000)
  48 C     10.102400    8.498100   10.172200    ( 0.0000,  0.0000,  0.0000)
  49 C      8.020800    8.490700    8.903900    ( 0.0000,  0.0000,  0.0000)
  50 C      9.505300    7.547200   11.204800    ( 0.0000,  0.0000,  0.0000)
  51 C      7.994700    7.736300   11.318200    ( 0.0000,  0.0000,  0.0000)
  52 C      7.254800    7.633900    9.951900    ( 0.0000,  0.0000,  0.0000)

Unit cell:
           periodic     x           y           z      points  spacing
  1. axis:    no    19.086200    0.000000    0.000000    90     0.2121
  2. axis:    no     0.000000   16.912900    0.000000    80     0.2114
  3. axis:    no     0.000000    0.000000   16.181500    75     0.2158

  Lengths:  19.086200  16.912900  16.181500
  Angles:   90.000000  90.000000  90.000000

Effective grid spacing dv^(1/3) = 0.2131

                     log10-error:    total        iterations:
           time      wfs    density  energy       poisson
iter:   1  22:42:54                -344.726457           
iter:   2  22:43:17  -0.81  -0.73  -341.640076           
iter:   3  22:43:39  -0.72  -0.75  -323.582015           
iter:   4  22:44:01  -1.77  -1.05  -322.823476           
iter:   5  22:44:24  -1.53  -1.11  -321.667760           
iter:   6  22:44:47  -1.25  -1.48  -322.568862           
iter:   7  22:45:09  -2.10  -1.42  -321.246716           
iter:   8  22:45:32  -1.94  -1.70  -321.089756           
iter:   9  22:45:56  -2.61  -2.08  -321.034556           
iter:  10  22:46:19  -3.31  -2.12  -321.013477           
iter:  11  22:46:43  -3.18  -2.48  -321.018634           
iter:  12  22:47:05  -3.48  -2.46  -321.006715           
iter:  13  22:47:28  -4.12  -2.73  -321.006337           
iter:  14  22:47:50  -5.01  -3.02  -321.005739           
iter:  15  22:48:13  -5.43  -3.21  -321.005693           
iter:  16  22:48:37  -5.13  -3.27  -321.005778           
iter:  17  22:49:00  -6.17  -3.30  -321.005649           
iter:  18  22:49:23  -5.10  -3.39  -321.005760           
iter:  19  22:49:46  -5.45  -3.35  -321.005600           
iter:  20  22:50:08  -7.09  -3.98  -321.005596           
iter:  21  22:50:29  -6.84  -4.04  -321.005597           
iter:  22  22:50:51  -6.56  -4.06  -321.005597           
iter:  23  22:51:13  -8.04  -4.19  -321.005594           

Converged after 23 iterations.

Dipole moment: (0.365462, 0.454497, 0.027067) |e|*Ang

Energy contributions relative to reference atoms: (reference = -46135.290654)

Kinetic:       +262.850964
Potential:     -279.024078
External:        +0.000000
XC:            -304.526957
Entropy (-ST):   +0.000000
Local:           -0.305523
--------------------------
Free energy:   -321.005594
Extrapolated:  -321.005594

 Band  Eigenvalues  Occupancy
    0    -28.34433    2.00000
    1    -26.74012    2.00000
    2    -25.91328    2.00000
    3    -25.73141    2.00000
    4    -22.96257    2.00000
    5    -21.76532    2.00000
    6    -20.74883    2.00000
    7    -20.51027    2.00000
    8    -20.04694    2.00000
    9    -19.59684    2.00000
   10    -18.80165    2.00000
   11    -18.40137    2.00000
   12    -18.10591    2.00000
   13    -18.01382    2.00000
   14    -17.86928    2.00000
   15    -17.20187    2.00000
   16    -16.60517    2.00000
   17    -16.27436    2.00000
   18    -15.57547    2.00000
   19    -15.11882    2.00000
   20    -14.75294    2.00000
   21    -14.60180    2.00000
   22    -14.34052    2.00000
   23    -14.04584    2.00000
   24    -13.97199    2.00000
   25    -13.63963    2.00000
   26    -13.04221    2.00000
   27    -12.46086    2.00000
   28    -12.17282    2.00000
   29    -12.02729    2.00000
   30    -11.93974    2.00000
   31    -11.72668    2.00000
   32    -11.40249    2.00000
   33    -11.32962    2.00000
   34    -11.20883    2.00000
   35    -11.04717    2.00000
   36    -11.01213    2.00000
   37    -10.88466    2.00000
   38    -10.70492    2.00000
   39    -10.51698    2.00000
   40    -10.38722    2.00000
   41    -10.20656    2.00000
   42    -10.12399    2.00000
   43    -10.04898    2.00000
   44     -9.83298    2.00000
   45     -9.73085    2.00000
   46     -9.62230    2.00000
   47     -9.45654    2.00000
   48     -9.43675    2.00000
   49     -9.29337    2.00000
   50     -9.20500    2.00000
   51     -9.13412    2.00000
   52     -8.89219    2.00000
   53     -8.79746    2.00000
   54     -8.68791    2.00000
   55     -8.60138    2.00000
   56     -8.30160    2.00000
   57     -8.22227    2.00000
   58     -7.98942    2.00000
   59     -7.95673    2.00000
   60     -7.89437    2.00000
   61     -7.75955    2.00000
   62     -7.60789    2.00000
   63     -7.53982    2.00000
   64     -7.40056    2.00000
   65     -7.28254    2.00000
   66     -7.13664    2.00000
   67     -6.82629    2.00000
   68     -6.54458    2.00000
   69     -5.94002    2.00000
   70     -5.90549    2.00000
   71     -5.76479    2.00000
   72     -5.59071    2.00000
   73     -5.38008    2.00000
   74     -5.21764    2.00000
   75     -4.26319    2.00000
   76     -2.20285    0.00000
   77     -1.69418    0.00000
   78     -0.84783    0.00000
   79     -0.78729    0.00000
   80     -0.73361    0.00000
   81     -0.62613    0.00000
   82     -0.54144    0.00000
   83     -0.18035    0.00000
   84      0.09478    0.00000
   85      0.21033    0.00000
   86      0.22519    0.00000
   87      0.34691    0.00000
   88      0.38504    0.00000
   89      0.48331    0.00000
   90      0.63233    0.00000
   91      0.70942    0.00000
   92      0.73730    0.00000
   93      0.80600    0.00000
   94      0.89748    0.00000
   95      0.97138    0.00000

Fermi level: -3.23302

Gap: 2.060 eV
Transition (v -> c):
  (s=0, k=0, n=75, [0.00, 0.00, 0.00]) -> (s=0, k=0, n=76, [0.00, 0.00, 0.00])

Forces in eV/Ang:
  0 H    -0.16053    0.45498   -0.22026
  1 H    -0.10700    0.10907   -0.35084
  2 H    -0.10756    0.43267    0.06321
  3 H     0.26084    0.02302   -0.07860
  4 H     0.17704   -0.18062    0.06883
  5 H     0.06171    0.21251   -0.16039
  6 H     0.08981   -0.13960   -0.18380
  7 H    -0.21217    0.02428   -0.13825
  8 H    -0.16410   -0.19401    0.16985
  9 H    -0.20621    0.12270    0.01157
 10 H     0.20223   -0.00603    0.11479
 11 H    -0.03044    0.11617    0.11962
 12 H    -0.43060    0.11264    0.01497
 13 H     0.10920   -0.61948    0.09450
 14 H    -0.21474    0.24705    0.30353
 15 H     0.28410    0.01912   -0.02088
 16 H    -0.15987    0.32771    0.05420
 17 H     0.18611   -0.09792   -0.35328
 18 H     0.10062   -0.28688   -0.17654
 19 H    -0.25729    0.28436    0.34141
 20 H     0.06772   -0.28078   -0.08895
 21 H     0.09039    0.01172    0.25006
 22 H    -0.06672    0.29192    0.02596
 23 H    -0.26182   -0.14600    0.00702
 24 O     0.09287    0.42339    0.69091
 25 O    -0.00182   -0.26618    0.10388
 26 Cl   -0.17552   -0.14151   -0.54911
 27 O    -0.42203    0.31862   -0.63323
 28 O     0.04384    0.27022    0.69791
 29 C     0.06048   -0.79349   -0.14288
 30 C     0.34071   -0.38383    0.55532
 31 C     0.26303   -0.66613   -0.32298
 32 C    -0.08848    0.36630   -0.10001
 33 C    -0.03787   -0.06629    0.05202
 34 C    -0.11837    0.11292   -0.07095
 35 C    -0.21369   -0.16649    0.16904
 36 C     0.17932   -0.02523    0.29928
 37 C     0.04809    0.10772    0.38517
 38 C     0.09042    0.37261   -0.19426
 39 C     0.19553   -0.16320    0.08661
 40 C    -0.49732    0.20493   -0.27195
 41 C     0.06733   -0.20764   -0.40558
 42 C     0.11262    0.12385    0.37109
 43 C     0.04496   -0.07667    0.21898
 44 C     0.24858    0.03541    0.26332
 45 N    -0.05438   -0.03724   -0.52199
 46 C     0.46327    0.34756   -0.01436
 47 C    -0.01377   -0.08307   -0.23147
 48 C    -0.23392   -0.15206    0.01828
 49 C     0.36170    0.34733    0.15745
 50 C    -0.13439    0.19695   -0.10243
 51 C     0.15341   -0.05214    0.08729
 52 C    -0.38655   -0.63135   -0.22970

System changes: positions 

Initializing position-dependent things.

Density initialized from wave functions
           .----------------------------------------------.  
          /|                                              |  
         / |                                              |  
        /  |                                              |  
       /   |                                              |  
      /    |                                              |  
     /     |                                              |  
    /      |                                              |  
   /       |                                              |  
  /        |                                              |  
 *         |        OH   H    H                           |  
 |         |            HC     H                          |  
 |         |      O C        C C                          |  
 |         |       OC  C  H  H    H                       |  
 |         |        H     C  N                            |  
 |         |      HO  C HH                                |  
 |         |     H   C       HC   HC                      |  
 |         |      C         H      C  CCH  H              |  
 |         |          C H                                 |  
 |         |  H  C                                        |  
 |         .------C--C------------------------------------.  
 |        /           H                                  /   
 |       /       Cl                                     /    
 |      /                                              /     
 |     /                                              /      
 |    /                                              /       
 |   /                                              /        
 |  /                                              /         
 | /                                              /          
 |/                                              /           
 *----------------------------------------------*            

Positions:
   0 H      4.129607   12.919400    7.847853    ( 0.0000,  0.0000,  0.0000)
   1 H      4.595671   10.079158    7.187488    ( 0.0000,  0.0000,  0.0000)
   2 H      5.645563   10.204581   11.072703    ( 0.0000,  0.0000,  0.0000)
   3 H     15.089926    7.884329    6.369577    ( 0.0000,  0.0000,  0.0000)
   4 H     14.461529    5.894320    7.716083    ( 0.0000,  0.0000,  0.0000)
   5 H     13.374782    9.590536    5.800309    ( 0.0000,  0.0000,  0.0000)
   6 H      7.679983    3.998006    5.414874    ( 0.0000,  0.0000,  0.0000)
   7 H      3.996969    6.133747    6.050925    ( 0.0000,  0.0000,  0.0000)
   8 H     12.133656    5.602028    8.496726    ( 0.0000,  0.0000,  0.0000)
   9 H     11.038154    9.311953    6.578665    ( 0.0000,  0.0000,  0.0000)
  10 H      8.425389    4.597714    7.680440    ( 0.0000,  0.0000,  0.0000)
  11 H      4.716065    6.729560    8.313209    ( 0.0000,  0.0000,  0.0000)
  12 H      9.384249    7.160809    7.133314    ( 0.0000,  0.0000,  0.0000)
  13 H      9.890760    6.306050    8.595850    ( 0.0000,  0.0000,  0.0000)
  14 H      6.465032    5.605729   10.264036    ( 0.0000,  0.0000,  0.0000)
  15 H      8.109159    5.636273    9.714102    ( 0.0000,  0.0000,  0.0000)
  16 H      9.961016    9.534182   10.523074    ( 0.0000,  0.0000,  0.0000)
  17 H     11.191259    8.357501   10.121953    ( 0.0000,  0.0000,  0.0000)
  18 H      7.595237    8.351402    7.900278    ( 0.0000,  0.0000,  0.0000)
  19 H      7.845124    9.556462    9.122177    ( 0.0000,  0.0000,  0.0000)
  20 H      9.747367    6.504689   10.953029    ( 0.0000,  0.0000,  0.0000)
  21 H      9.965291    7.741767   12.185072    ( 0.0000,  0.0000,  0.0000)
  22 H      7.810647    8.726470   11.767871    ( 0.0000,  0.0000,  0.0000)
  23 H      7.584460    7.004114   12.030200    ( 0.0000,  0.0000,  0.0000)
  24 O      4.876427   12.424648    9.911670    ( 0.0000,  0.0000,  0.0000)
  25 O      4.945474    7.472497   10.733884    ( 0.0000,  0.0000,  0.0000)
  26 Cl     5.277493    4.613578    3.992156    ( 0.0000,  0.0000,  0.0000)
  27 O      4.316771   11.957052    7.761154    ( 0.0000,  0.0000,  0.0000)
  28 O      4.954126    9.442760    7.856570    ( 0.0000,  0.0000,  0.0000)
  29 C      4.773764   11.603964    8.994959    ( 0.0000,  0.0000,  0.0000)
  30 C      5.839767    8.176517   10.257333    ( 0.0000,  0.0000,  0.0000)
  31 C      5.555858    9.622484   10.147986    ( 0.0000,  0.0000,  0.0000)
  32 C      5.103536   10.173433    9.010471    ( 0.0000,  0.0000,  0.0000)
  33 C     14.061359    7.758253    6.711443    ( 0.0000,  0.0000,  0.0000)
  34 C     13.707109    6.644713    7.465986    ( 0.0000,  0.0000,  0.0000)
  35 C     13.097647    8.713722    6.393515    ( 0.0000,  0.0000,  0.0000)
  36 C      7.040862    4.612240    6.050075    ( 0.0000,  0.0000,  0.0000)
  37 C      4.977187    5.810839    6.406302    ( 0.0000,  0.0000,  0.0000)
  38 C     12.394492    6.487323    7.902925    ( 0.0000,  0.0000,  0.0000)
  39 C     11.788193    8.554269    6.829637    ( 0.0000,  0.0000,  0.0000)
  40 C      7.451695    4.967028    7.327715    ( 0.0000,  0.0000,  0.0000)
  41 C      5.400862    6.155434    7.681306    ( 0.0000,  0.0000,  0.0000)
  42 C      5.802009    5.045669    5.588001    ( 0.0000,  0.0000,  0.0000)
  43 C     11.417942    7.438805    7.597228    ( 0.0000,  0.0000,  0.0000)
  44 C      6.661851    5.767106    8.165562    ( 0.0000,  0.0000,  0.0000)
  45 N      9.486523    8.381368    8.841743    ( 0.0000,  0.0000,  0.0000)
  46 C      9.989618    7.264365    8.050895    ( 0.0000,  0.0000,  0.0000)
  47 C      7.135703    6.121213    9.555193    ( 0.0000,  0.0000,  0.0000)
  48 C     10.099058    8.495928   10.172461    ( 0.0000,  0.0000,  0.0000)
  49 C      8.025967    8.495662    8.906149    ( 0.0000,  0.0000,  0.0000)
  50 C      9.503380    7.550014   11.203337    ( 0.0000,  0.0000,  0.0000)
  51 C      7.996892    7.735555   11.319447    ( 0.0000,  0.0000,  0.0000)
  52 C      7.249278    7.624881    9.948619    ( 0.0000,  0.0000,  0.0000)

Unit cell:
           periodic     x           y           z      points  spacing
  1. axis:    no    19.086200    0.000000    0.000000    90     0.2121
  2. axis:    no     0.000000   16.912900    0.000000    80     0.2114
  3. axis:    no     0.000000    0.000000   16.181500    75     0.2158

  Lengths:  19.086200  16.912900  16.181500
  Angles:   90.000000  90.000000  90.000000

Effective grid spacing dv^(1/3) = 0.2131

                     log10-error:    total        iterations:
           time      wfs    density  energy       poisson
iter:   1  22:51:56  -2.46         -321.139574           
iter:   2  22:52:19  -3.94  -2.32  -321.129245           
iter:   3  22:52:41  -3.00  -2.34  -321.092863           
iter:   4  22:53:05  -4.43  -2.75  -321.092683           
iter:   5  22:53:26  -4.44  -2.76  -321.090077           
iter:   6  22:53:48  -4.20  -3.00  -321.089984           
iter:   7  22:54:10  -4.87  -3.03  -321.089353           
iter:   8  22:54:32  -5.23  -3.29  -321.089115           
iter:   9  22:54:53  -6.06  -3.61  -321.089113           
iter:  10  22:55:16  -6.24  -3.66  -321.089115           
iter:  11  22:55:38  -7.12  -3.91  -321.089113           
iter:  12  22:56:02  -7.69  -4.01  -321.089113           

Converged after 12 iterations.

Dipole moment: (0.392292, 0.420197, 0.029082) |e|*Ang

Energy contributions relative to reference atoms: (reference = -46135.290654)

Kinetic:       +258.003481
Potential:     -275.479905
External:        +0.000000
XC:            -303.264616
Entropy (-ST):   +0.000000
Local:           -0.348073
--------------------------
Free energy:   -321.089113
Extrapolated:  -321.089113

 Band  Eigenvalues  Occupancy
    0    -28.16350    2.00000
    1    -26.77253    2.00000
    2    -25.93831    2.00000
    3    -25.48206    2.00000
    4    -23.00930    2.00000
    5    -21.72251    2.00000
    6    -20.79538    2.00000
    7    -20.52960    2.00000
    8    -20.06663    2.00000
    9    -19.60869    2.00000
   10    -18.83853    2.00000
   11    -18.43478    2.00000
   12    -18.15633    2.00000
   13    -18.04296    2.00000
   14    -17.88585    2.00000
   15    -17.24587    2.00000
   16    -16.62175    2.00000
   17    -16.29565    2.00000
   18    -15.59948    2.00000
   19    -15.10832    2.00000
   20    -14.74877    2.00000
   21    -14.59320    2.00000
   22    -14.32717    2.00000
   23    -14.05298    2.00000
   24    -13.99392    2.00000
   25    -13.64653    2.00000
   26    -13.04113    2.00000
   27    -12.46194    2.00000
   28    -12.14614    2.00000
   29    -12.02908    2.00000
   30    -11.93946    2.00000
   31    -11.75950    2.00000
   32    -11.37721    2.00000
   33    -11.29284    2.00000
   34    -11.18015    2.00000
   35    -11.04464    2.00000
   36    -11.02490    2.00000
   37    -10.88581    2.00000
   38    -10.71095    2.00000
   39    -10.49870    2.00000
   40    -10.36394    2.00000
   41    -10.15025    2.00000
   42    -10.10396    2.00000
   43    -10.06414    2.00000
   44     -9.84726    2.00000
   45     -9.74688    2.00000
   46     -9.60722    2.00000
   47     -9.44935    2.00000
   48     -9.43183    2.00000
   49     -9.29207    2.00000
   50     -9.21328    2.00000
   51     -9.14435    2.00000
   52     -8.92567    2.00000
   53     -8.79438    2.00000
   54     -8.68770    2.00000
   55     -8.59785    2.00000
   56     -8.32885    2.00000
   57     -8.24539    2.00000
   58     -7.99566    2.00000
   59     -7.96515    2.00000
   60     -7.80648    2.00000
   61     -7.73236    2.00000
   62     -7.60999    2.00000
   63     -7.51494    2.00000
   64     -7.44260    2.00000
   65     -7.29611    2.00000
   66     -7.15408    2.00000
   67     -6.82334    2.00000
   68     -6.47902    2.00000
   69     -5.97430    2.00000
   70     -5.92930    2.00000
   71     -5.79064    2.00000
   72     -5.60719    2.00000
   73     -5.39834    2.00000
   74     -5.23253    2.00000
   75     -4.30798    2.00000
   76     -2.31794    0.00000
   77     -1.72152    0.00000
   78     -0.83096    0.00000
   79     -0.80930    0.00000
   80     -0.73949    0.00000
   81     -0.61501    0.00000
   82     -0.55332    0.00000
   83     -0.19637    0.00000
   84      0.06030    0.00000
   85      0.19624    0.00000
   86      0.20363    0.00000
   87      0.32239    0.00000
   88      0.37706    0.00000
   89      0.46633    0.00000
   90      0.62096    0.00000
   91      0.68969    0.00000
   92      0.72527    0.00000
   93      0.74479    0.00000
   94      0.86605    0.00000
   95      0.92205    0.00000

Fermi level: -3.31296

Gap: 1.990 eV
Transition (v -> c):
  (s=0, k=0, n=75, [0.00, 0.00, 0.00]) -> (s=0, k=0, n=76, [0.00, 0.00, 0.00])

Forces in eV/Ang:
  0 H    -0.11963    0.35264   -0.15484
  1 H     0.04153   -0.14591   -0.06591
  2 H    -0.12576    0.17993   -0.26273
  3 H     0.10077    0.00715   -0.02777
  4 H     0.01874   -0.04069    0.02294
  5 H    -0.01865    0.00322   -0.01560
  6 H     0.02186   -0.05630   -0.06862
  7 H    -0.04881   -0.02000   -0.05278
  8 H    -0.07192    0.06986   -0.00834
  9 H    -0.04277   -0.03618    0.06182
 10 H    -0.11525    0.11024   -0.00965
 11 H     0.10799   -0.01383   -0.03204
 12 H    -0.26214    0.11416    0.15032
 13 H     0.14852   -0.27305   -0.07754
 14 H    -0.12291    0.26169    0.19370
 15 H     0.17197    0.05128   -0.03223
 16 H    -0.13230    0.13691   -0.02124
 17 H    -0.00973   -0.07382   -0.30658
 18 H     0.16424   -0.19998    0.00727
 19 H    -0.21301    0.23189    0.32871
 20 H     0.01717   -0.07630   -0.03913
 21 H     0.02867   -0.00384    0.08838
 22 H    -0.05733    0.15579   -0.04357
 23 H    -0.19741   -0.08832   -0.01308
 24 O    -0.03939   -0.60461   -0.51289
 25 O    -0.01056   -0.26795    0.17045
 26 Cl   -0.07433   -0.05208   -0.22417
 27 O    -0.24001    0.15873   -0.07340
 28 O    -0.16913    0.40081    0.08585
 29 C    -0.08254    0.77930    0.51803
 30 C     0.24938   -0.40131    0.30692
 31 C     0.20373   -0.09783    0.05018
 32 C     0.09547   -0.06203    0.22405
 33 C     0.13279    0.01444   -0.04206
 34 C     0.18088   -0.07306   -0.03295
 35 C     0.07886    0.09614   -0.06524
 36 C    -0.02426   -0.12334   -0.20120
 37 C    -0.19591    0.00695   -0.14291
 38 C    -0.06757   -0.12451    0.14558
 39 C    -0.18226    0.02660    0.08526
 40 C     0.21639    0.05087    0.26007
 41 C     0.08839    0.09905    0.32432
 42 C     0.06586    0.00352    0.06887
 43 C     0.09305    0.12517    0.07562
 44 C    -0.07338    0.03789   -0.05768
 45 N     0.05898    0.09872   -0.07770
 46 C     0.05272   -0.18108   -0.03175
 47 C     0.04172   -0.22181    0.02280
 48 C     0.01265    0.12449   -0.10072
 49 C     0.03170    0.13404   -0.14246
 50 C     0.01893   -0.09680    0.02850
 51 C    -0.06421   -0.02909    0.09612
 52 C    -0.06379   -0.30482   -0.08137

System changes: positions 

Initializing position-dependent things.

Density initialized from wave functions
           .----------------------------------------------.  
          /|                                              |  
         / |                                              |  
        /  |                                              |  
       /   |                                              |  
      /    |                                              |  
     /     |                                              |  
    /      |                                              |  
   /       |                                              |  
  /        |                                              |  
 *         |        OH   H    H                           |  
 |         |            HC     H                          |  
 |         |      O C        C C                          |  
 |         |       OC  C  H  H    H                       |  
 |         |        H     C  N                            |  
 |         |      HO  C HH                                |  
 |         |     H   C       HC   HC                      |  
 |         |      C         H         CCH  H              |  
 |         |          C H                                 |  
 |         |  H  C                                        |  
 |         .------C--C------------------------------------.  
 |        /           H                                  /   
 |       /       Cl                                     /    
 |      /                                              /     
 |     /                                              /      
 |    /                                              /       
 |   /                                              /        
 |  /                                              /         
 | /                                              /          
 |/                                              /           
 *----------------------------------------------*            

Positions:
   0 H      4.126642   12.928013    7.843929    ( 0.0000,  0.0000,  0.0000)
   1 H      4.595575   10.077651    7.184039    ( 0.0000,  0.0000,  0.0000)
   2 H      5.642870   10.210363   11.069068    ( 0.0000,  0.0000,  0.0000)
   3 H     15.093293    7.884599    6.368603    ( 0.0000,  0.0000,  0.0000)
   4 H     14.463044    5.892439    7.716915    ( 0.0000,  0.0000,  0.0000)
   5 H     13.374919    9.592056    5.798957    ( 0.0000,  0.0000,  0.0000)
   6 H      7.680943    3.996167    5.412539    ( 0.0000,  0.0000,  0.0000)
   7 H      3.994745    6.133605    6.049150    ( 0.0000,  0.0000,  0.0000)
   8 H     12.131406    5.601769    8.497772    ( 0.0000,  0.0000,  0.0000)
   9 H     11.036064    9.312241    6.579704    ( 0.0000,  0.0000,  0.0000)
  10 H      8.425002    4.599381    7.681085    ( 0.0000,  0.0000,  0.0000)
  11 H      4.717528    6.730149    8.313540    ( 0.0000,  0.0000,  0.0000)
  12 H      9.377206    7.163358    7.135747    ( 0.0000,  0.0000,  0.0000)
  13 H      9.893817    6.297532    8.595302    ( 0.0000,  0.0000,  0.0000)
  14 H      6.461642    5.611495   10.269139    ( 0.0000,  0.0000,  0.0000)
  15 H      8.113790    5.637200    9.713458    ( 0.0000,  0.0000,  0.0000)
  16 H      9.957859    9.538571   10.523120    ( 0.0000,  0.0000,  0.0000)
  17 H     11.192396    8.355680   10.114757    ( 0.0000,  0.0000,  0.0000)
  18 H      7.598479    8.346317    7.899169    ( 0.0000,  0.0000,  0.0000)
  19 H      7.840043    9.562024    9.129634    ( 0.0000,  0.0000,  0.0000)
  20 H      9.748102    6.501563   10.951807    ( 0.0000,  0.0000,  0.0000)
  21 H      9.966361    7.741789   12.188172    ( 0.0000,  0.0000,  0.0000)
  22 H      7.809297    8.730905   11.767375    ( 0.0000,  0.0000,  0.0000)
  23 H      7.579589    7.001735   12.030046    ( 0.0000,  0.0000,  0.0000)
  24 O      4.876459   12.418206    9.908501    ( 0.0000,  0.0000,  0.0000)
  25 O      4.945298    7.466503   10.737245    ( 0.0000,  0.0000,  0.0000)
  26 Cl     5.275126    4.611792    3.984882    ( 0.0000,  0.0000,  0.0000)
  27 O      4.310131   11.961716    7.755635    ( 0.0000,  0.0000,  0.0000)
  28 O      4.951808    9.450842    7.862730    ( 0.0000,  0.0000,  0.0000)
  29 C      4.772903   11.610554    9.002000    ( 0.0000,  0.0000,  0.0000)
  30 C      5.845990    8.167641   10.265932    ( 0.0000,  0.0000,  0.0000)
  31 C      5.560835    9.616359   10.146529    ( 0.0000,  0.0000,  0.0000)
  32 C      5.104404   10.175006    9.013252    ( 0.0000,  0.0000,  0.0000)
  33 C     14.063155    7.758018    6.711151    ( 0.0000,  0.0000,  0.0000)
  34 C     13.709094    6.644362    7.464985    ( 0.0000,  0.0000,  0.0000)
  35 C     13.097391    8.714060    6.393673    ( 0.0000,  0.0000,  0.0000)
  36 C      7.041726    4.610153    6.049028    ( 0.0000,  0.0000,  0.0000)
  37 C      4.974483    5.811692    6.406752    ( 0.0000,  0.0000,  0.0000)
  38 C     12.394070    6.487971    7.903837    ( 0.0000,  0.0000,  0.0000)
  39 C     11.786721    8.553552    6.831558    ( 0.0000,  0.0000,  0.0000)
  40 C      7.451609    4.969234    7.329864    ( 0.0000,  0.0000,  0.0000)
  41 C      5.402698    6.155532    7.683527    ( 0.0000,  0.0000,  0.0000)
  42 C      5.803809    5.046581    5.591636    ( 0.0000,  0.0000,  0.0000)
  43 C     11.419695    7.440214    7.599916    ( 0.0000,  0.0000,  0.0000)
  44 C      6.662434    5.767938    8.166490    ( 0.0000,  0.0000,  0.0000)
  45 N      9.487061    8.382640    8.836927    ( 0.0000,  0.0000,  0.0000)
  46 C      9.993641    7.263963    8.050303    ( 0.0000,  0.0000,  0.0000)
  47 C      7.136255    6.117200    9.553945    ( 0.0000,  0.0000,  0.0000)
  48 C     10.097636    8.496805   10.171027    ( 0.0000,  0.0000,  0.0000)
  49 C      8.028961    8.500143    8.905030    ( 0.0000,  0.0000,  0.0000)
  50 C      9.502744    7.549876   11.203070    ( 0.0000,  0.0000,  0.0000)
  51 C      7.996958    7.734743   11.321541    ( 0.0000,  0.0000,  0.0000)
  52 C      7.245615    7.615788    9.945768    ( 0.0000,  0.0000,  0.0000)

Unit cell:
           periodic     x           y           z      points  spacing
  1. axis:    no    19.086200    0.000000    0.000000    90     0.2121
  2. axis:    no     0.000000   16.912900    0.000000    80     0.2114
  3. axis:    no     0.000000    0.000000   16.181500    75     0.2158

  Lengths:  19.086200  16.912900  16.181500
  Angles:   90.000000  90.000000  90.000000

Effective grid spacing dv^(1/3) = 0.2131

                     log10-error:    total        iterations:
           time      wfs    density  energy       poisson
iter:   1  22:56:45  -2.72         -321.165115           
iter:   2  22:57:07  -4.17  -2.50  -321.158296           
iter:   3  22:57:30  -3.41  -2.53  -321.141528           
iter:   4  22:57:52  -4.61  -2.84  -321.141259           
iter:   5  22:58:13  -4.42  -2.86  -321.139758           
iter:   6  22:58:36  -4.48  -3.14  -321.139047           
iter:   7  22:58:59  -5.32  -3.27  -321.138973           
iter:   8  22:59:21  -5.42  -3.36  -321.138776           
iter:   9  22:59:43  -6.40  -3.78  -321.138774           
iter:  10  23:00:07  -6.60  -3.85  -321.138775           
iter:  11  23:00:30  -7.68  -4.12  -321.138775           

Converged after 11 iterations.

Dipole moment: (0.410827, 0.434540, 0.046405) |e|*Ang

Energy contributions relative to reference atoms: (reference = -46135.290654)

Kinetic:       +255.795779
Potential:     -273.911159
External:        +0.000000
XC:            -302.683908
Entropy (-ST):   +0.000000
Local:           -0.339488
--------------------------
Free energy:   -321.138775
Extrapolated:  -321.138775

 Band  Eigenvalues  Occupancy
    0    -28.07998    2.00000
    1    -26.79028    2.00000
    2    -25.90977    2.00000
    3    -25.64790    2.00000
    4    -23.01379    2.00000
    5    -21.67523    2.00000
    6    -20.80038    2.00000
    7    -20.52031    2.00000
    8    -20.04755    2.00000
    9    -19.56617    2.00000
   10    -18.83679    2.00000
   11    -18.44501    2.00000
   12    -18.15476    2.00000
   13    -18.04147    2.00000
   14    -17.88060    2.00000
   15    -17.16017    2.00000
   16    -16.61748    2.00000
   17    -16.30361    2.00000
   18    -15.58844    2.00000
   19    -15.08398    2.00000
   20    -14.75259    2.00000
   21    -14.59837    2.00000
   22    -14.33883    2.00000
   23    -14.04509    2.00000
   24    -13.99179    2.00000
   25    -13.62167    2.00000
   26    -13.02736    2.00000
   27    -12.43902    2.00000
   28    -12.11487    2.00000
   29    -12.02682    2.00000
   30    -11.92655    2.00000
   31    -11.74846    2.00000
   32    -11.37222    2.00000
   33    -11.28391    2.00000
   34    -11.14463    2.00000
   35    -11.03966    2.00000
   36    -11.01932    2.00000
   37    -10.87937    2.00000
   38    -10.71150    2.00000
   39    -10.50850    2.00000
   40    -10.36426    2.00000
   41    -10.17823    2.00000
   42    -10.08230    2.00000
   43    -10.05125    2.00000
   44     -9.85673    2.00000
   45     -9.75150    2.00000
   46     -9.60418    2.00000
   47     -9.43803    2.00000
   48     -9.42918    2.00000
   49     -9.28095    2.00000
   50     -9.21129    2.00000
   51     -9.13330    2.00000
   52     -8.93191    2.00000
   53     -8.78289    2.00000
   54     -8.66552    2.00000
   55     -8.59653    2.00000
   56     -8.32456    2.00000
   57     -8.24047    2.00000
   58     -7.98821    2.00000
   59     -7.97614    2.00000
   60     -7.85449    2.00000
   61     -7.74615    2.00000
   62     -7.60900    2.00000
   63     -7.52645    2.00000
   64     -7.45271    2.00000
   65     -7.28427    2.00000
   66     -7.14846    2.00000
   67     -6.81527    2.00000
   68     -6.53994    2.00000
   69     -5.97138    2.00000
   70     -5.91179    2.00000
   71     -5.78890    2.00000
   72     -5.62256    2.00000
   73     -5.39270    2.00000
   74     -5.24003    2.00000
   75     -4.33037    2.00000
   76     -2.26891    0.00000
   77     -1.70493    0.00000
   78     -0.83897    0.00000
   79     -0.81997    0.00000
   80     -0.75041    0.00000
   81     -0.63225    0.00000
   82     -0.55297    0.00000
   83     -0.20338    0.00000
   84      0.03669    0.00000
   85      0.18065    0.00000
   86      0.20026    0.00000
   87      0.31101    0.00000
   88      0.37667    0.00000
   89      0.46304    0.00000
   90      0.61616    0.00000
   91      0.68818    0.00000
   92      0.72350    0.00000
   93      0.74274    0.00000
   94      0.85405    0.00000
   95      0.90370    0.00000

Fermi level: -3.29964

Gap: 2.061 eV
Transition (v -> c):
  (s=0, k=0, n=75, [0.00, 0.00, 0.00]) -> (s=0, k=0, n=76, [0.00, 0.00, 0.00])

Forces in eV/Ang:
  0 H    -0.09618    0.19164   -0.18116
  1 H     0.04388   -0.09414   -0.00852
  2 H    -0.10804    0.06257   -0.33248
  3 H     0.04255    0.00329   -0.01167
  4 H    -0.00592   -0.01250    0.00729
  5 H    -0.04061   -0.04600    0.01887
  6 H     0.00691   -0.03940   -0.04311
  7 H    -0.04032   -0.01798   -0.03709
  8 H    -0.05295    0.10236   -0.03102
  9 H    -0.01492   -0.07095    0.07445
 10 H    -0.09903    0.10666    0.00475
 11 H     0.09983   -0.00355   -0.00738
 12 H    -0.14987    0.09372    0.19631
 13 H     0.16069   -0.07620   -0.15446
 14 H    -0.06437    0.22606    0.12473
 15 H     0.09910    0.03871   -0.03520
 16 H    -0.10148    0.01737   -0.06333
 17 H    -0.10619   -0.04378   -0.26136
 18 H     0.16290   -0.13003    0.03405
 19 H    -0.15848    0.08424    0.26712
 20 H    -0.00607    0.02160   -0.01343
 21 H    -0.00909   -0.02015   -0.02206
 22 H    -0.04668    0.03334   -0.09429
 23 H    -0.15186   -0.04436   -0.01430
 24 O     0.03816    0.17223    0.30520
 25 O     0.06204   -0.24221    0.18904
 26 Cl   -0.00630    0.00397   -0.01475
 27 O    -0.13952    0.23273    0.32083
 28 O    -0.17855    0.21941   -0.08908
 29 C    -0.22669   -0.00023   -0.50679
 30 C     0.03606   -0.26912    0.13640
 31 C     0.18725    0.05758    0.22361
 32 C     0.08041    0.03128    0.27221
 33 C     0.12728    0.06179   -0.07037
 34 C     0.09471   -0.11435    0.02887
 35 C     0.07207    0.09172   -0.05927
 36 C     0.01651   -0.05133   -0.04619
 37 C    -0.05588   -0.01231   -0.05510
 38 C     0.06914   -0.16683    0.13815
 39 C    -0.07389    0.14425    0.00113
 40 C     0.22400   -0.05581    0.06131
 41 C    -0.05708    0.10952    0.17341
 42 C    -0.07830   -0.04198   -0.16763
 43 C     0.04867    0.07693    0.05002
 44 C    -0.06630   -0.01284   -0.07266
 45 N     0.08472    0.11055    0.11532
 46 C    -0.16555   -0.31938   -0.00394
 47 C     0.06075   -0.22098    0.13805
 48 C     0.10081    0.20117   -0.10149
 49 C    -0.12823    0.04765   -0.14148
 50 C     0.08572   -0.15414    0.08460
 51 C    -0.13268   -0.01717    0.06630
 52 C     0.16360   -0.04917    0.02431

System changes: positions 

Initializing position-dependent things.

Density initialized from wave functions
           .----------------------------------------------.  
          /|                                              |  
         / |                                              |  
        /  |                                              |  
       /   |                                              |  
      /    |                                              |  
     /     |                                              |  
    /      |                                              |  
   /       |                                              |  
  /        |                                              |  
 *         |        OH   H    H                           |  
 |         |            HC     H                          |  
 |         |      O C        C C                          |  
 |         |       OC  C  H  H   H                        |  
 |         |        H     C  N                            |  
 |         |      HO  C HH                                |  
 |         |     H   C       HC   HC                      |  
 |         |      C         H         CCH  H              |  
 |         |          C H                                 |  
 |         |  H  C                                        |  
 |         .------C--C------------------------------------.  
 |        /           H                                  /   
 |       /       Cl                                     /    
 |      /                                              /     
 |     /                                              /      
 |    /                                              /       
 |   /                                              /        
 |  /                                              /         
 | /                                              /          
 |/                                              /           
 *----------------------------------------------*            

Positions:
   0 H      4.121730   12.940460    7.836307    ( 0.0000,  0.0000,  0.0000)
   1 H      4.596084   10.074774    7.179967    ( 0.0000,  0.0000,  0.0000)
   2 H      5.638095   10.217733   11.059409    ( 0.0000,  0.0000,  0.0000)
   3 H     15.097734    7.884959    6.367322    ( 0.0000,  0.0000,  0.0000)
   4 H     14.464702    5.890089    7.717959    ( 0.0000,  0.0000,  0.0000)
   5 H     13.374383    9.593001    5.797750    ( 0.0000,  0.0000,  0.0000)
   6 H      7.682147    3.993420    5.409173    ( 0.0000,  0.0000,  0.0000)
   7 H      3.991448    6.133188    6.046508    ( 0.0000,  0.0000,  0.0000)
   8 H     12.127966    5.603087    8.498502    ( 0.0000,  0.0000,  0.0000)
   9 H     11.033416    9.311385    6.582128    ( 0.0000,  0.0000,  0.0000)
  10 H      8.423232    4.602941    7.682050    ( 0.0000,  0.0000,  0.0000)
  11 H      4.720709    6.730903    8.314008    ( 0.0000,  0.0000,  0.0000)
  12 H      9.367002    7.167734    7.141841    ( 0.0000,  0.0000,  0.0000)
  13 H      9.899977    6.287052    8.591959    ( 0.0000,  0.0000,  0.0000)
  14 H      6.456866    5.621657   10.276837    ( 0.0000,  0.0000,  0.0000)
  15 H      8.120514    5.638824    9.712139    ( 0.0000,  0.0000,  0.0000)
  16 H      9.952680    9.543549   10.522021    ( 0.0000,  0.0000,  0.0000)
  17 H     11.191714    8.352976   10.102369    ( 0.0000,  0.0000,  0.0000)
  18 H      7.604815    8.338573    7.898429    ( 0.0000,  0.0000,  0.0000)
  19 H      7.831804    9.569228    9.142325    ( 0.0000,  0.0000,  0.0000)
  20 H      9.748789    6.498577   10.950253    ( 0.0000,  0.0000,  0.0000)
  21 H      9.967332    7.741429   12.191040    ( 0.0000,  0.0000,  0.0000)
  22 H      7.807019    8.736144   11.765108    ( 0.0000,  0.0000,  0.0000)
  23 H      7.571650    6.998414   12.029645    ( 0.0000,  0.0000,  0.0000)
  24 O      4.877529   12.417511    9.914031    ( 0.0000,  0.0000,  0.0000)
  25 O      4.946410    7.455763   10.744223    ( 0.0000,  0.0000,  0.0000)
  26 Cl     5.272508    4.609969    3.976903    ( 0.0000,  0.0000,  0.0000)
  27 O      4.300501   11.971294    7.755739    ( 0.0000,  0.0000,  0.0000)
  28 O      4.946341    9.462883    7.868077    ( 0.0000,  0.0000,  0.0000)
  29 C      4.767726   11.613828    8.997171    ( 0.0000,  0.0000,  0.0000)
  30 C      5.852927    8.153595   10.277526    ( 0.0000,  0.0000,  0.0000)
  31 C      5.569589    9.610487   10.148947    ( 0.0000,  0.0000,  0.0000)
  32 C      5.106522   10.178009    9.020859    ( 0.0000,  0.0000,  0.0000)
  33 C     14.067154    7.758893    6.709618    ( 0.0000,  0.0000,  0.0000)
  34 C     13.712357    6.642055    7.464530    ( 0.0000,  0.0000,  0.0000)
  35 C     13.098038    8.715741    6.393078    ( 0.0000,  0.0000,  0.0000)
  36 C      7.043301    4.607280    6.048057    ( 0.0000,  0.0000,  0.0000)
  37 C      4.971207    5.812465    6.407103    ( 0.0000,  0.0000,  0.0000)
  38 C     12.395384    6.486173    7.906870    ( 0.0000,  0.0000,  0.0000)
  39 C     11.784533    8.555428    6.833442    ( 0.0000,  0.0000,  0.0000)
  40 C      7.454690    4.970533    7.332148    ( 0.0000,  0.0000,  0.0000)
  41 C      5.403268    6.157259    7.687777    ( 0.0000,  0.0000,  0.0000)
  42 C      5.804045    5.046843    5.592328    ( 0.0000,  0.0000,  0.0000)
  43 C     11.422290    7.442751    7.603819    ( 0.0000,  0.0000,  0.0000)
  44 C      6.662278    5.768477    8.166537    ( 0.0000,  0.0000,  0.0000)
  45 N      9.489087    8.385860    8.833745    ( 0.0000,  0.0000,  0.0000)
  46 C      9.994964    7.258098    8.049685    ( 0.0000,  0.0000,  0.0000)
  47 C      7.137918    6.109082    9.555054    ( 0.0000,  0.0000,  0.0000)
  48 C     10.097831    8.501215   10.167802    ( 0.0000,  0.0000,  0.0000)
  49 C      8.029891    8.505871    8.901652    ( 0.0000,  0.0000,  0.0000)
  50 C      9.503575    7.547176   11.204280    ( 0.0000,  0.0000,  0.0000)
  51 C      7.994743    7.733562   11.324902    ( 0.0000,  0.0000,  0.0000)
  52 C      7.244773    7.605343    9.943214    ( 0.0000,  0.0000,  0.0000)

Unit cell:
           periodic     x           y           z      points  spacing
  1. axis:    no    19.086200    0.000000    0.000000    90     0.2121
  2. axis:    no     0.000000   16.912900    0.000000    80     0.2114
  3. axis:    no     0.000000    0.000000   16.181500    75     0.2158

  Lengths:  19.086200  16.912900  16.181500
  Angles:   90.000000  90.000000  90.000000

Effective grid spacing dv^(1/3) = 0.2131

                     log10-error:    total        iterations:
           time      wfs    density  energy       poisson
iter:   1  23:01:16  -2.67         -321.198974           
iter:   2  23:01:39  -4.06  -2.48  -321.196313           
iter:   3  23:02:02  -3.44  -2.51  -321.186339           
iter:   4  23:02:25  -4.92  -2.84  -321.185547           
iter:   5  23:02:48  -4.63  -2.86  -321.185078           
iter:   6  23:03:11  -4.50  -3.04  -321.184572           
iter:   7  23:03:34  -5.29  -3.27  -321.184420           
iter:   8  23:03:55  -5.92  -3.51  -321.184365           
iter:   9  23:04:17  -5.85  -3.78  -321.184379           
iter:  10  23:04:39  -6.12  -3.77  -321.184359           
iter:  11  23:05:02  -7.00  -4.15  -321.184358           
iter:  12  23:05:24  -7.96  -4.19  -321.184357           

Converged after 12 iterations.

Dipole moment: (0.424976, 0.429226, 0.030723) |e|*Ang

Energy contributions relative to reference atoms: (reference = -46135.290654)

Kinetic:       +251.443301
Potential:     -270.557476
External:        +0.000000
XC:            -301.717632
Entropy (-ST):   +0.000000
Local:           -0.352550
--------------------------
Free energy:   -321.184357
Extrapolated:  -321.184357

 Band  Eigenvalues  Occupancy
    0    -28.05184    2.00000
    1    -26.78304    2.00000
    2    -25.89645    2.00000
    3    -25.58553    2.00000
    4    -22.99466    2.00000
    5    -21.63273    2.00000
    6    -20.78448    2.00000
    7    -20.51089    2.00000
    8    -20.02657    2.00000
    9    -19.52537    2.00000
   10    -18.81544    2.00000
   11    -18.43674    2.00000
   12    -18.15142    2.00000
   13    -18.03563    2.00000
   14    -17.87784    2.00000
   15    -17.13272    2.00000
   16    -16.60583    2.00000
   17    -16.31189    2.00000
   18    -15.61010    2.00000
   19    -15.06594    2.00000
   20    -14.77583    2.00000
   21    -14.61807    2.00000
   22    -14.35462    2.00000
   23    -14.04955    2.00000
   24    -14.00200    2.00000
   25    -13.62031    2.00000
   26    -13.02538    2.00000
   27    -12.43408    2.00000
   28    -12.08822    2.00000
   29    -12.02818    2.00000
   30    -11.91685    2.00000
   31    -11.76567    2.00000
   32    -11.36948    2.00000
   33    -11.26632    2.00000
   34    -11.11654    2.00000
   35    -11.03427    2.00000
   36    -11.01253    2.00000
   37    -10.87796    2.00000
   38    -10.71450    2.00000
   39    -10.52493    2.00000
   40    -10.37277    2.00000
   41    -10.13989    2.00000
   42    -10.06469    2.00000
   43    -10.03482    2.00000
   44     -9.86927    2.00000
   45     -9.75204    2.00000
   46     -9.61260    2.00000
   47     -9.41626    2.00000
   48     -9.37580    2.00000
   49     -9.27744    2.00000
   50     -9.20971    2.00000
   51     -9.11675    2.00000
   52     -8.93007    2.00000
   53     -8.77984    2.00000
   54     -8.65791    2.00000
   55     -8.61115    2.00000
   56     -8.31898    2.00000
   57     -8.22601    2.00000
   58     -8.00808    2.00000
   59     -7.97803    2.00000
   60     -7.83445    2.00000
   61     -7.76995    2.00000
   62     -7.62223    2.00000
   63     -7.54860    2.00000
   64     -7.46135    2.00000
   65     -7.27775    2.00000
   66     -7.15636    2.00000
   67     -6.81582    2.00000
   68     -6.49261    2.00000
   69     -5.96895    2.00000
   70     -5.89708    2.00000
   71     -5.78872    2.00000
   72     -5.63149    2.00000
   73     -5.39890    2.00000
   74     -5.25014    2.00000
   75     -4.35540    2.00000
   76     -2.27004    0.00000
   77     -1.69825    0.00000
   78     -0.87106    0.00000
   79     -0.83090    0.00000
   80     -0.77298    0.00000
   81     -0.65910    0.00000
   82     -0.56241    0.00000
   83     -0.21039    0.00000
   84      0.01385    0.00000
   85      0.16569    0.00000
   86      0.19811    0.00000
   87      0.30056    0.00000
   88      0.37579    0.00000
   89      0.46011    0.00000
   90      0.61303    0.00000
   91      0.68839    0.00000
   92      0.72646    0.00000
   93      0.74043    0.00000
   94      0.84437    0.00000
   95      0.89497    0.00000

Fermi level: -3.31272

Gap: 2.085 eV
Transition (v -> c):
  (s=0, k=0, n=75, [0.00, 0.00, 0.00]) -> (s=0, k=0, n=76, [0.00, 0.00, 0.00])

Forces in eV/Ang:
  0 H    -0.06851    0.11835   -0.11626
  1 H    -0.01900    0.09404   -0.05397
  2 H    -0.05628    0.06288   -0.17368
  3 H     0.02669    0.00754   -0.01349
  4 H     0.01865   -0.02462    0.00073
  5 H    -0.03647   -0.03160    0.00948
  6 H    -0.01389   -0.01694   -0.01160
  7 H    -0.01633   -0.01797   -0.01194
  8 H    -0.04748    0.03159    0.01053
  9 H    -0.04436   -0.03354    0.06030
 10 H     0.05178    0.04698    0.06372
 11 H     0.01439    0.06879    0.08634
 12 H    -0.07381    0.04147    0.16285
 13 H     0.13181    0.02252   -0.15490
 14 H    -0.01722    0.13096    0.08315
 15 H     0.04683   -0.02299   -0.01877
 16 H    -0.05530   -0.04989   -0.08061
 17 H    -0.12207    0.00385   -0.19815
 18 H     0.10490   -0.05074   -0.02816
 19 H    -0.09184   -0.12283    0.14998
 20 H    -0.01028    0.05843    0.00055
 21 H    -0.02209   -0.03811   -0.08539
 22 H    -0.03677   -0.08774   -0.12695
 23 H    -0.10790    0.00516   -0.00628
 24 O    -0.03141   -0.03017   -0.09518
 25 O     0.14408   -0.19058    0.19334
 26 Cl    0.04996    0.05142    0.16173
 27 O    -0.12736    0.19327    0.31101
 28 O    -0.08151   -0.13518   -0.00962
 29 C    -0.11018    0.25654    0.04237
 30 C    -0.15385   -0.02377   -0.06232
 31 C     0.09147    0.04001    0.13916
 32 C    -0.00122    0.04419    0.03987
 33 C    -0.01621    0.01674   -0.00861
 34 C    -0.00894   -0.01150    0.02426
 35 C     0.03321   -0.00168    0.01270
 36 C     0.00200    0.04245    0.06375
 37 C     0.09282   -0.03006    0.03268
 38 C     0.16059    0.01330    0.00918
 39 C     0.13484    0.10222   -0.01553
 40 C    -0.02043   -0.06420   -0.19908
 41 C    -0.09295   -0.00380   -0.14068
 42 C    -0.12687   -0.06619   -0.23326
 43 C     0.00255   -0.05240    0.00793
 44 C     0.00545   -0.09317   -0.01761
 45 N     0.01314    0.01704    0.16623
 46 C    -0.20836   -0.15304    0.06762
 47 C     0.06604   -0.08148    0.14208
 48 C     0.05911    0.09920   -0.01002
 49 C    -0.14821   -0.01744    0.06877
 50 C     0.07195   -0.03755    0.05514
 51 C    -0.06276   -0.02318   -0.00487
 52 C     0.29528    0.17424    0.11043

System changes: positions 

Initializing position-dependent things.

Density initialized from wave functions
           .----------------------------------------------.  
          /|                                              |  
         / |                                              |  
        /  |                                              |  
       /   |                                              |  
      /    |                                              |  
     /     |                                              |  
    /      |                                              |  
   /       |                                              |  
  /        |                                              |  
 *         |        OH   H    H                           |  
 |         |            HC     H                          |  
 |         |      O C        C C                          |  
 |         |       OC  C  H  H   H                        |  
 |         |        H     C  N                            |  
 |         |      HO  C HH                                |  
 |         |     H   C       HC   HC                      |  
 |         |      C         H         CCH  H              |  
 |         |          C H                                 |  
 |         |  H  C                                        |  
 |         .------C--C------------------------------------.  
 |        /           H                                  /   
 |       /       Cl                                     /    
 |      /                                              /     
 |     /                                              /      
 |    /                                              /       
 |   /                                              /        
 |  /                                              /         
 | /                                              /          
 |/                                              /           
 *----------------------------------------------*            

Positions:
   0 H      4.117609   12.950104    7.829888    ( 0.0000,  0.0000,  0.0000)
   1 H      4.595800   10.075210    7.176185    ( 0.0000,  0.0000,  0.0000)
   2 H      5.634377   10.223606   11.051378    ( 0.0000,  0.0000,  0.0000)
   3 H     15.101032    7.885332    6.366254    ( 0.0000,  0.0000,  0.0000)
   4 H     14.466233    5.888078    7.718643    ( 0.0000,  0.0000,  0.0000)
   5 H     13.373544    9.593301    5.796998    ( 0.0000,  0.0000,  0.0000)
   6 H      7.682661    3.991443    5.406898    ( 0.0000,  0.0000,  0.0000)
   7 H      3.989104    6.132663    6.044686    ( 0.0000,  0.0000,  0.0000)
   8 H     12.125003    5.603996    8.499391    ( 0.0000,  0.0000,  0.0000)
   9 H     11.030831    9.310564    6.584521    ( 0.0000,  0.0000,  0.0000)
  10 H      8.423627    4.605655    7.683930    ( 0.0000,  0.0000,  0.0000)
  11 H      4.722568    6.732783    8.316061    ( 0.0000,  0.0000,  0.0000)
  12 H      9.359492    7.170976    7.148022    ( 0.0000,  0.0000,  0.0000)
  13 H      9.905806    6.280804    8.587561    ( 0.0000,  0.0000,  0.0000)
  14 H      6.453655    5.629813   10.282971    ( 0.0000,  0.0000,  0.0000)
  15 H      8.125426    5.639257    9.711078    ( 0.0000,  0.0000,  0.0000)
  16 H      9.948667    9.545861   10.520069    ( 0.0000,  0.0000,  0.0000)
  17 H     11.189487    8.351465   10.091595    ( 0.0000,  0.0000,  0.0000)
  18 H      7.610224    8.333068    7.897175    ( 0.0000,  0.0000,  0.0000)
  19 H      7.825330    9.571242    9.152333    ( 0.0000,  0.0000,  0.0000)
  20 H      9.749091    6.497557   10.949283    ( 0.0000,  0.0000,  0.0000)
  21 H      9.967614    7.740559   12.191453    ( 0.0000,  0.0000,  0.0000)
  22 H      7.805024    8.737805   11.761639    ( 0.0000,  0.0000,  0.0000)
  23 H      7.565026    6.996512   12.029333    ( 0.0000,  0.0000,  0.0000)
  24 O      4.877462   12.415749    9.914516    ( 0.0000,  0.0000,  0.0000)
  25 O      4.949622    7.446149   10.751638    ( 0.0000,  0.0000,  0.0000)
  26 Cl     5.271737    4.609705    3.974707    ( 0.0000,  0.0000,  0.0000)
  27 O      4.292281   11.980262    7.760045    ( 0.0000,  0.0000,  0.0000)
  28 O      4.942076    9.467155    7.872054    ( 0.0000,  0.0000,  0.0000)
  29 C      4.763340   11.620698    8.997291    ( 0.0000,  0.0000,  0.0000)
  30 C      5.854421    8.145141   10.283415    ( 0.0000,  0.0000,  0.0000)
  31 C      5.576254    9.606922   10.152020    ( 0.0000,  0.0000,  0.0000)
  32 C      5.107461   10.180793    9.025239    ( 0.0000,  0.0000,  0.0000)
  33 C     14.068820    7.759464    6.708811    ( 0.0000,  0.0000,  0.0000)
  34 C     13.713818    6.640921    7.464536    ( 0.0000,  0.0000,  0.0000)
  35 C     13.098682    8.716305    6.393280    ( 0.0000,  0.0000,  0.0000)
  36 C      7.044346    4.606466    6.048976    ( 0.0000,  0.0000,  0.0000)
  37 C      4.971148    5.812483    6.408358    ( 0.0000,  0.0000,  0.0000)
  38 C     12.399041    6.486193    7.908291    ( 0.0000,  0.0000,  0.0000)
  39 C     11.786136    8.557872    6.834398    ( 0.0000,  0.0000,  0.0000)
  40 C      7.455051    4.970482    7.329401    ( 0.0000,  0.0000,  0.0000)
  41 C      5.402145    6.157710    7.686854    ( 0.0000,  0.0000,  0.0000)
  42 C      5.802165    5.045979    5.589209    ( 0.0000,  0.0000,  0.0000)
  43 C     11.423814    7.442994    7.606351    ( 0.0000,  0.0000,  0.0000)
  44 C      6.662688    5.767100    8.166668    ( 0.0000,  0.0000,  0.0000)
  45 N      9.490233    8.387741    8.834146    ( 0.0000,  0.0000,  0.0000)
  46 C      9.992759    7.252979    8.050604    ( 0.0000,  0.0000,  0.0000)
  47 C      7.139983    6.103250    9.557777    ( 0.0000,  0.0000,  0.0000)
  48 C     10.098532    8.504983   10.166002    ( 0.0000,  0.0000,  0.0000)
  49 C      8.028378    8.509160    8.901518    ( 0.0000,  0.0000,  0.0000)
  50 C      9.505048    7.545503   11.205690    ( 0.0000,  0.0000,  0.0000)
  51 C      7.992780    7.732408   11.326710    ( 0.0000,  0.0000,  0.0000)
  52 C      7.249010    7.601919    9.943487    ( 0.0000,  0.0000,  0.0000)

Unit cell:
           periodic     x           y           z      points  spacing
  1. axis:    no    19.086200    0.000000    0.000000    90     0.2121
  2. axis:    no     0.000000   16.912900    0.000000    80     0.2114
  3. axis:    no     0.000000    0.000000   16.181500    75     0.2158

  Lengths:  19.086200  16.912900  16.181500
  Angles:   90.000000  90.000000  90.000000

Effective grid spacing dv^(1/3) = 0.2131

                     log10-error:    total        iterations:
           time      wfs    density  energy       poisson
iter:   1  23:06:07  -3.00         -321.212409           
iter:   2  23:06:30  -4.36  -2.69  -321.211516           
iter:   3  23:06:52  -4.26  -2.71  -321.207252           
iter:   4  23:07:14  -5.19  -2.99  -321.207042           
iter:   5  23:07:37  -4.85  -3.06  -321.206625           
iter:   6  23:07:59  -5.20  -3.41  -321.206771           
iter:   7  23:08:21  -5.38  -3.37  -321.206580           
iter:   8  23:08:44  -6.09  -3.73  -321.206561           
iter:   9  23:09:05  -7.00  -3.93  -321.206559           
iter:  10  23:09:27  -6.88  -3.98  -321.206559           
iter:  11  23:09:48  -7.33  -4.30  -321.206559           
iter:  12  23:10:10  -8.02  -4.42  -321.206558           

Converged after 12 iterations.

Dipole moment: (0.416723, 0.443118, 0.015691) |e|*Ang

Energy contributions relative to reference atoms: (reference = -46135.290654)

Kinetic:       +249.752116
Potential:     -269.279421
External:        +0.000000
XC:            -301.332171
Entropy (-ST):   +0.000000
Local:           -0.347083
--------------------------
Free energy:   -321.206558
Extrapolated:  -321.206558

 Band  Eigenvalues  Occupancy
    0    -28.07204    2.00000
    1    -26.75993    2.00000
    2    -25.89047    2.00000
    3    -25.64318    2.00000
    4    -22.97069    2.00000
    5    -21.62915    2.00000
    6    -20.77266    2.00000
    7    -20.50684    2.00000
    8    -20.01492    2.00000
    9    -19.48375    2.00000
   10    -18.78856    2.00000
   11    -18.41531    2.00000
   12    -18.15273    2.00000
   13    -18.01687    2.00000
   14    -17.88121    2.00000
   15    -17.11090    2.00000
   16    -16.59349    2.00000
   17    -16.30352    2.00000
   18    -15.60846    2.00000
   19    -15.05628    2.00000
   20    -14.76204    2.00000
   21    -14.60405    2.00000
   22    -14.34505    2.00000
   23    -14.04812    2.00000
   24    -14.00074    2.00000
   25    -13.61880    2.00000
   26    -13.01997    2.00000
   27    -12.42945    2.00000
   28    -12.07105    2.00000
   29    -12.02267    2.00000
   30    -11.91164    2.00000
   31    -11.76735    2.00000
   32    -11.36057    2.00000
   33    -11.27075    2.00000
   34    -11.09383    2.00000
   35    -11.03214    2.00000
   36    -11.00545    2.00000
   37    -10.87398    2.00000
   38    -10.70619    2.00000
   39    -10.51110    2.00000
   40    -10.36086    2.00000
   41    -10.13366    2.00000
   42    -10.04583    2.00000
   43    -10.02529    2.00000
   44     -9.86331    2.00000
   45     -9.74138    2.00000
   46     -9.61456    2.00000
   47     -9.40710    2.00000
   48     -9.35613    2.00000
   49     -9.27673    2.00000
   50     -9.21195    2.00000
   51     -9.10999    2.00000
   52     -8.92335    2.00000
   53     -8.78261    2.00000
   54     -8.65372    2.00000
   55     -8.61097    2.00000
   56     -8.32097    2.00000
   57     -8.20941    2.00000
   58     -8.00940    2.00000
   59     -7.97614    2.00000
   60     -7.85434    2.00000
   61     -7.76519    2.00000
   62     -7.63011    2.00000
   63     -7.53746    2.00000
   64     -7.46177    2.00000
   65     -7.28306    2.00000
   66     -7.16404    2.00000
   67     -6.82269    2.00000
   68     -6.49534    2.00000
   69     -5.97577    2.00000
   70     -5.87557    2.00000
   71     -5.79528    2.00000
   72     -5.62380    2.00000
   73     -5.39343    2.00000
   74     -5.24232    2.00000
   75     -4.35806    2.00000
   76     -2.25211    0.00000
   77     -1.69048    0.00000
   78     -0.85925    0.00000
   79     -0.84565    0.00000
   80     -0.77846    0.00000
   81     -0.65506    0.00000
   82     -0.57095    0.00000
   83     -0.20960    0.00000
   84      0.01523    0.00000
   85      0.16435    0.00000
   86      0.19919    0.00000
   87      0.29873    0.00000
   88      0.37650    0.00000
   89      0.45749    0.00000
   90      0.61401    0.00000
   91      0.69186    0.00000
   92      0.73045    0.00000
   93      0.73837    0.00000
   94      0.84242    0.00000
   95      0.89196    0.00000

Fermi level: -3.30509

Gap: 2.106 eV
Transition (v -> c):
  (s=0, k=0, n=75, [0.00, 0.00, 0.00]) -> (s=0, k=0, n=76, [0.00, 0.00, 0.00])

Forces in eV/Ang:
  0 H    -0.06405    0.13616   -0.06470
  1 H     0.01170    0.07523    0.04512
  2 H    -0.01115    0.08734    0.00004
  3 H    -0.02857    0.00303   -0.00070
  4 H     0.00620   -0.00167   -0.01269
  5 H    -0.02649   -0.03042    0.00829
  6 H    -0.04591    0.02309    0.03849
  7 H     0.06375   -0.03561    0.03158
  8 H    -0.00881    0.03501   -0.00002
  9 H    -0.01744   -0.02761    0.05315
 10 H     0.03806    0.03731    0.03578
 11 H     0.01243    0.05277    0.06004
 12 H    -0.06162    0.00218    0.09812
 13 H     0.08301   -0.00009   -0.09614
 14 H     0.01060    0.06516    0.06930
 15 H     0.02731   -0.07757    0.00332
 16 H    -0.02379   -0.03732   -0.06665
 17 H    -0.06849    0.03274   -0.14580
 18 H     0.06439    0.00142   -0.01797
 19 H    -0.05722   -0.18252    0.07548
 20 H    -0.00248    0.05829    0.00221
 21 H    -0.00049   -0.03780   -0.05746
 22 H    -0.03204   -0.11400   -0.11264
 23 H    -0.07433    0.03680   -0.00979
 24 O    -0.00550    0.25778    0.18049
 25 O     0.17570   -0.13018    0.15692
 26 Cl    0.04672    0.05096    0.16341
 27 O    -0.12558    0.10014    0.18619
 28 O    -0.10310   -0.14443   -0.04375
 29 C    -0.05574   -0.07545   -0.05296
 30 C    -0.12999    0.08456   -0.11231
 31 C    -0.07797    0.09174   -0.11594
 32 C    -0.00921    0.00034   -0.00566
 33 C    -0.00518   -0.02913    0.01553
 34 C     0.08571    0.03123   -0.00582
 35 C     0.07389    0.00976    0.00132
 36 C    -0.11791    0.01251   -0.18233
 37 C    -0.00697   -0.05920   -0.16309
 38 C     0.00472    0.03395    0.02625
 39 C     0.04113   -0.01584    0.07000
 40 C     0.01360   -0.02255   -0.02043
 41 C     0.02353   -0.00509    0.00756
 42 C    -0.01501   -0.05984   -0.07373
 43 C    -0.01246   -0.02807   -0.06408
 44 C    -0.04649   -0.09186   -0.02524
 45 N    -0.07888   -0.04090    0.13059
 46 C    -0.07389    0.06649    0.08502
 47 C     0.06079    0.06605    0.05294
 48 C    -0.02812   -0.03280    0.04215
 49 C    -0.06615   -0.10239    0.13734
 50 C     0.01084    0.05086   -0.00586
 51 C     0.04032   -0.03865   -0.03732
 52 C     0.17061    0.17797    0.10594

System changes: positions 

Initializing position-dependent things.

Density initialized from wave functions
           .----------------------------------------------.  
          /|                                              |  
         / |                                              |  
        /  |                                              |  
       /   |                                              |  
      /    |                                              |  
     /     |                                              |  
    /      |                                              |  
   /       |                                              |  
  /        |                                              |  
 *         |        OH   H    H                           |  
 |         |            HC     H                          |  
 |         |      O C        C C                          |  
 |         |       OC  C  H  H   H                        |  
 |         |        H     C  N                            |  
 |         |      HO  C HH                                |  
 |         |     H   C       HC   HC                      |  
 |         |      C         H         CCH  H              |  
 |         |          C H                                 |  
 |         |  H  C                                        |  
 |         .------C--C------------------------------------.  
 |        /           H                                  /   
 |       /       Cl                                     /    
 |      /                                              /     
 |     /                                              /      
 |    /                                              /       
 |   /                                              /        
 |  /                                              /         
 | /                                              /          
 |/                                              /           
 *----------------------------------------------*            

Positions:
   0 H      4.113637   12.959352    7.824490    ( 0.0000,  0.0000,  0.0000)
   1 H      4.595952   10.076579    7.174663    ( 0.0000,  0.0000,  0.0000)
   2 H      5.631690   10.229296   11.046206    ( 0.0000,  0.0000,  0.0000)
   3 H     15.102684    7.885628    6.365538    ( 0.0000,  0.0000,  0.0000)
   4 H     14.467335    5.886738    7.718863    ( 0.0000,  0.0000,  0.0000)
   5 H     13.372525    9.592962    5.796634    ( 0.0000,  0.0000,  0.0000)
   6 H      7.682132    3.990587    5.406129    ( 0.0000,  0.0000,  0.0000)
   7 H      3.988844    6.131616    6.044095    ( 0.0000,  0.0000,  0.0000)
   8 H     12.122912    5.605315    8.499931    ( 0.0000,  0.0000,  0.0000)
   9 H     11.028843    9.309504    6.587089    ( 0.0000,  0.0000,  0.0000)
  10 H      8.424362    4.608215    7.685705    ( 0.0000,  0.0000,  0.0000)
  11 H      4.724144    6.734886    8.318355    ( 0.0000,  0.0000,  0.0000)
  12 H      9.353172    7.173190    7.153840    ( 0.0000,  0.0000,  0.0000)
  13 H      9.911163    6.276298    8.583026    ( 0.0000,  0.0000,  0.0000)
  14 H      6.451646    5.636484   10.288432    ( 0.0000,  0.0000,  0.0000)
  15 H      8.129303    5.638104    9.710456    ( 0.0000,  0.0000,  0.0000)
  16 H      9.945523    9.546927   10.517620    ( 0.0000,  0.0000,  0.0000)
  17 H     11.186938    8.351029   10.081692    ( 0.0000,  0.0000,  0.0000)
  18 H      7.615019    8.329356    7.896071    ( 0.0000,  0.0000,  0.0000)
  19 H      7.819885    9.569498    9.160466    ( 0.0000,  0.0000,  0.0000)
  20 H      9.749286    6.497820   10.948640    ( 0.0000,  0.0000,  0.0000)
  21 H      9.967881    7.739317   12.190894    ( 0.0000,  0.0000,  0.0000)
  22 H      7.803088    8.737019   11.757355    ( 0.0000,  0.0000,  0.0000)
  23 H      7.559200    6.995879   12.028930    ( 0.0000,  0.0000,  0.0000)
  24 O      4.877277   12.418640    9.917531    ( 0.0000,  0.0000,  0.0000)
  25 O      4.954883    7.437349   10.759404    ( 0.0000,  0.0000,  0.0000)
  26 Cl     5.271953    4.610366    3.975874    ( 0.0000,  0.0000,  0.0000)
  27 O      4.284363   11.987839    7.765701    ( 0.0000,  0.0000,  0.0000)
  28 O      4.937187    9.467906    7.873914    ( 0.0000,  0.0000,  0.0000)
  29 C      4.759556   11.624573    8.997392    ( 0.0000,  0.0000,  0.0000)
  30 C      5.853506    8.140837   10.285556    ( 0.0000,  0.0000,  0.0000)
  31 C      5.579082    9.606218   10.151415    ( 0.0000,  0.0000,  0.0000)
  32 C      5.108029   10.182359    9.028169    ( 0.0000,  0.0000,  0.0000)
  33 C     14.070013    7.759219    6.708569    ( 0.0000,  0.0000,  0.0000)
  34 C     13.716792    6.640748    7.464307    ( 0.0000,  0.0000,  0.0000)
  35 C     13.100638    8.717014    6.393308    ( 0.0000,  0.0000,  0.0000)
  36 C      7.042590    4.605904    6.045422    ( 0.0000,  0.0000,  0.0000)
  37 C      4.970449    5.811380    6.405573    ( 0.0000,  0.0000,  0.0000)
  38 C     12.401015    6.486683    7.909934    ( 0.0000,  0.0000,  0.0000)
  39 C     11.787413    8.558924    6.836598    ( 0.0000,  0.0000,  0.0000)
  40 C      7.455925    4.970229    7.328081    ( 0.0000,  0.0000,  0.0000)
  41 C      5.402260    6.158053    7.687232    ( 0.0000,  0.0000,  0.0000)
  42 C      5.801052    5.044372    5.586361    ( 0.0000,  0.0000,  0.0000)
  43 C     11.424688    7.442893    7.606788    ( 0.0000,  0.0000,  0.0000)
  44 C      6.661888    5.764629    8.166193    ( 0.0000,  0.0000,  0.0000)
  45 N      9.489440    8.388235    8.836531    ( 0.0000,  0.0000,  0.0000)
  46 C      9.990411    7.251101    8.052711    ( 0.0000,  0.0000,  0.0000)
  47 C      7.142452    6.100670    9.560307    ( 0.0000,  0.0000,  0.0000)
  48 C     10.098296    8.506708   10.165565    ( 0.0000,  0.0000,  0.0000)
  49 C      8.026462    8.509467    8.903839    ( 0.0000,  0.0000,  0.0000)
  50 C      9.506077    7.545396   11.206394    ( 0.0000,  0.0000,  0.0000)
  51 C      7.992378    7.730892   11.327280    ( 0.0000,  0.0000,  0.0000)
  52 C      7.254410    7.602432    9.945421    ( 0.0000,  0.0000,  0.0000)

Unit cell:
           periodic     x           y           z      points  spacing
  1. axis:    no    19.086200    0.000000    0.000000    90     0.2121
  2. axis:    no     0.000000   16.912900    0.000000    80     0.2114
  3. axis:    no     0.000000    0.000000   16.181500    75     0.2158

  Lengths:  19.086200  16.912900  16.181500
  Angles:   90.000000  90.000000  90.000000

Effective grid spacing dv^(1/3) = 0.2131

                     log10-error:    total        iterations:
           time      wfs    density  energy       poisson
iter:   1  23:10:54  -3.15         -321.226911           
iter:   2  23:11:19  -4.52  -2.74  -321.226079           
iter:   3  23:11:40  -4.04  -2.76  -321.222918           
iter:   4  23:12:03  -5.65  -3.10  -321.222744           
iter:   5  23:12:26  -5.31  -3.11  -321.222588           
iter:   6  23:12:49  -5.12  -3.29  -321.222464           
iter:   7  23:13:10  -5.91  -3.55  -321.222401           
iter:   8  23:13:32  -6.63  -3.88  -321.222401           
iter:   9  23:13:54  -7.07  -4.05  -321.222400           
iter:  10  23:14:17  -6.99  -4.09  -321.222400           
iter:  11  23:14:38  -7.67  -4.44  -321.222400           

Converged after 11 iterations.

Dipole moment: (0.407114, 0.452049, 0.001314) |e|*Ang

Energy contributions relative to reference atoms: (reference = -46135.290654)

Kinetic:       +248.620061
Potential:     -268.399780
External:        +0.000000
XC:            -301.088269
Entropy (-ST):   +0.000000
Local:           -0.354411
--------------------------
Free energy:   -321.222400
Extrapolated:  -321.222400

 Band  Eigenvalues  Occupancy
    0    -28.07800    2.00000
    1    -26.73636    2.00000
    2    -25.89083    2.00000
    3    -25.62758    2.00000
    4    -22.96805    2.00000
    5    -21.64358    2.00000
    6    -20.76395    2.00000
    7    -20.50279    2.00000
    8    -20.01449    2.00000
    9    -19.48194    2.00000
   10    -18.77220    2.00000
   11    -18.40605    2.00000
   12    -18.13325    2.00000
   13    -18.00954    2.00000
   14    -17.87394    2.00000
   15    -17.11486    2.00000
   16    -16.59044    2.00000
   17    -16.29661    2.00000
   18    -15.61011    2.00000
   19    -15.05626    2.00000
   20    -14.75924    2.00000
   21    -14.60140    2.00000
   22    -14.34734    2.00000
   23    -14.05085    2.00000
   24    -13.99047    2.00000
   25    -13.61996    2.00000
   26    -13.01694    2.00000
   27    -12.43484    2.00000
   28    -12.05973    2.00000
   29    -12.01800    2.00000
   30    -11.91096    2.00000
   31    -11.77319    2.00000
   32    -11.35707    2.00000
   33    -11.26897    2.00000
   34    -11.08180    2.00000
   35    -11.02989    2.00000
   36    -10.99762    2.00000
   37    -10.87283    2.00000
   38    -10.70015    2.00000
   39    -10.51129    2.00000
   40    -10.35802    2.00000
   41    -10.12205    2.00000
   42    -10.03796    2.00000
   43    -10.02442    2.00000
   44     -9.85320    2.00000
   45     -9.73925    2.00000
   46     -9.61296    2.00000
   47     -9.40475    2.00000
   48     -9.34191    2.00000
   49     -9.27476    2.00000
   50     -9.21551    2.00000
   51     -9.11067    2.00000
   52     -8.92186    2.00000
   53     -8.78124    2.00000
[...]
   85      0.16611    0.00000
   86      0.20590    0.00000
   87      0.30580    0.00000
   88      0.38261    0.00000
   89      0.45126    0.00000
   90      0.61719    0.00000
   91      0.70112    0.00000
   92      0.73425    0.00000
   93      0.73611    0.00000
   94      0.84612    0.00000
   95      0.88970    0.00000

Fermi level: -3.30222

Gap: 2.029 eV
Transition (v -> c):
  (s=0, k=0, n=75, [0.00, 0.00, 0.00]) -> (s=0, k=0, n=76, [0.00, 0.00, 0.00])

Forces in eV/Ang:
  0 H    -0.01363    0.02364    0.01525
  1 H    -0.02071    0.04176    0.03344
  2 H    -0.00448    0.00195    0.00947
  3 H     0.00353    0.00056   -0.00041
  4 H     0.01288   -0.01102    0.01505
  5 H     0.00206    0.01912    0.00041
  6 H     0.01040   -0.00672   -0.00373
  7 H    -0.00927    0.00331    0.00784
  8 H    -0.00012    0.00748    0.00364
  9 H     0.00910    0.00534    0.01285
 10 H    -0.00525   -0.00349   -0.00382
 11 H     0.00587   -0.01029    0.00066
 12 H     0.03586   -0.03275   -0.00314
 13 H    -0.01274   -0.00494    0.00380
 14 H    -0.02847   -0.00574   -0.01092
 15 H     0.02982   -0.00321    0.00254
 16 H    -0.01438   -0.00316   -0.00781
 17 H     0.01110    0.00218    0.01969
 18 H     0.00819    0.00261   -0.00110
 19 H     0.01964    0.03319   -0.02952
 20 H    -0.00652    0.01075    0.00774
 21 H    -0.00810   -0.00168   -0.01848
 22 H     0.02226   -0.00262   -0.00783
 23 H     0.00552    0.00830   -0.01299
 24 O    -0.03100    0.03058    0.02693
 25 O     0.01543   -0.02594   -0.00677
 26 Cl   -0.01199   -0.00771   -0.01855
 27 O    -0.00088    0.02110    0.00898
 28 O     0.02176   -0.02856   -0.03846
 29 C    -0.00097    0.02410    0.03215
 30 C     0.03018    0.01636    0.01330
 31 C     0.02400    0.01278   -0.00917
 32 C     0.01253    0.00264   -0.07132
 33 C    -0.01553   -0.00798   -0.01140
 34 C     0.00143    0.00423    0.00890
 35 C    -0.00760    0.00877    0.00947
 36 C     0.00600    0.00075   -0.00882
 37 C    -0.01320    0.01206    0.00616
 38 C    -0.00497    0.01175    0.00467
 39 C    -0.00738    0.00246    0.01929
 40 C    -0.00451    0.00383    0.00782
 41 C     0.00833   -0.00023    0.01289
 42 C    -0.00970   -0.01176    0.02765
 43 C    -0.00939   -0.00920   -0.01386
 44 C    -0.00441   -0.01027    0.01035
 45 N    -0.00019    0.01691   -0.01776
 46 C     0.01403    0.01245    0.00602
 47 C     0.00820   -0.00861    0.01250
 48 C    -0.00080   -0.00218   -0.00742
 49 C     0.00048    0.01277    0.00015
 50 C     0.00130    0.00955   -0.02008
 51 C     0.02963   -0.00247    0.00352
 52 C    -0.03376   -0.01100    0.01042

System changes: positions 

Initializing position-dependent things.

Density initialized from wave functions
           .----------------------------------------------.  
          /|                                              |  
         / |                                              |  
        /  |                                              |  
       /   |                                              |  
      /    |                                              |  
     /     |                                              |  
    /      |                                              |  
   /       |                                              |  
  /        |                                              |  
 *         |        OH   H    H                           |  
 |         |            HC     H                          |  
 |         |      O C        C C                          |  
 |         |       OC  C  H  H   H                        |  
 |         |        H     C  N                            |  
 |         |      HO  C HH                                |  
 |         |     H   C       HC   HC                      |  
 |         |      C         H         CCH  H              |  
 |         |          C H                                 |  
 |         |  H  C                                        |  
 |         .------C--C------------------------------------.  
 |        /           H                                  /   
 |       /       Cl                                     /    
 |      /                                              /     
 |     /                                              /      
 |    /                                              /       
 |   /                                              /        
 |  /                                              /         
 | /                                              /          
 |/                                              /           
 *----------------------------------------------*            

Positions:
   0 H      4.090658   12.994773    7.832810    ( 0.0000,  0.0000,  0.0000)
   1 H      4.590049   10.107437    7.171223    ( 0.0000,  0.0000,  0.0000)
   2 H      5.625187   10.245627   11.035742    ( 0.0000,  0.0000,  0.0000)
   3 H     15.100218    7.883412    6.361297    ( 0.0000,  0.0000,  0.0000)
   4 H     14.468631    5.888626    7.719037    ( 0.0000,  0.0000,  0.0000)
   5 H     13.372726    9.590965    5.797401    ( 0.0000,  0.0000,  0.0000)
   6 H      7.675816    3.990896    5.400672    ( 0.0000,  0.0000,  0.0000)
   7 H      3.991610    6.126937    6.046843    ( 0.0000,  0.0000,  0.0000)
   8 H     12.125989    5.611933    8.507735    ( 0.0000,  0.0000,  0.0000)
   9 H     11.032051    9.315015    6.606296    ( 0.0000,  0.0000,  0.0000)
  10 H      8.432118    4.615659    7.678086    ( 0.0000,  0.0000,  0.0000)
  11 H      4.733435    6.741476    8.319290    ( 0.0000,  0.0000,  0.0000)
  12 H      9.337043    7.169952    7.168708    ( 0.0000,  0.0000,  0.0000)
  13 H      9.927467    6.267569    8.576181    ( 0.0000,  0.0000,  0.0000)
  14 H      6.461768    5.647841   10.304983    ( 0.0000,  0.0000,  0.0000)
  15 H      8.125473    5.621530    9.715297    ( 0.0000,  0.0000,  0.0000)
  16 H      9.937489    9.546977   10.507994    ( 0.0000,  0.0000,  0.0000)
  17 H     11.181176    8.362988   10.057622    ( 0.0000,  0.0000,  0.0000)
  18 H      7.612251    8.324540    7.899063    ( 0.0000,  0.0000,  0.0000)
  19 H      7.805552    9.540284    9.182898    ( 0.0000,  0.0000,  0.0000)
  20 H      9.757148    6.501987   10.943618    ( 0.0000,  0.0000,  0.0000)
  21 H      9.973472    7.731492   12.192566    ( 0.0000,  0.0000,  0.0000)
  22 H      7.797447    8.733216   11.738876    ( 0.0000,  0.0000,  0.0000)
  23 H      7.546613    7.003519   12.021727    ( 0.0000,  0.0000,  0.0000)
  24 O      4.876989   12.446611    9.921845    ( 0.0000,  0.0000,  0.0000)
  25 O      5.005427    7.438829   10.791445    ( 0.0000,  0.0000,  0.0000)
  26 Cl     5.267150    4.612618    3.981533    ( 0.0000,  0.0000,  0.0000)
  27 O      4.251257   12.019453    7.777342    ( 0.0000,  0.0000,  0.0000)
  28 O      4.886216    9.482042    7.875365    ( 0.0000,  0.0000,  0.0000)
  29 C      4.733519   11.649913    9.007148    ( 0.0000,  0.0000,  0.0000)
  30 C      5.865273    8.156777   10.277791    ( 0.0000,  0.0000,  0.0000)
  31 C      5.559340    9.621386   10.138810    ( 0.0000,  0.0000,  0.0000)
  32 C      5.069602   10.199694    9.024114    ( 0.0000,  0.0000,  0.0000)
  33 C     14.071070    7.760341    6.712107    ( 0.0000,  0.0000,  0.0000)
  34 C     13.717817    6.645077    7.471140    ( 0.0000,  0.0000,  0.0000)
  35 C     13.102320    8.718733    6.400858    ( 0.0000,  0.0000,  0.0000)
  36 C      7.039393    4.603406    6.043328    ( 0.0000,  0.0000,  0.0000)
  37 C      4.971113    5.806039    6.408523    ( 0.0000,  0.0000,  0.0000)
  38 C     12.401647    6.492457    7.915438    ( 0.0000,  0.0000,  0.0000)
  39 C     11.790412    8.562861    6.847342    ( 0.0000,  0.0000,  0.0000)
  40 C      7.454726    4.963578    7.325570    ( 0.0000,  0.0000,  0.0000)
  41 C      5.402832    6.151949    7.688530    ( 0.0000,  0.0000,  0.0000)
  42 C      5.797194    5.038941    5.588289    ( 0.0000,  0.0000,  0.0000)
  43 C     11.422267    7.444354    7.608016    ( 0.0000,  0.0000,  0.0000)
  44 C      6.660318    5.752861    8.170732    ( 0.0000,  0.0000,  0.0000)
  45 N      9.480006    8.375041    8.843728    ( 0.0000,  0.0000,  0.0000)
  46 C      9.989376    7.251455    8.056818    ( 0.0000,  0.0000,  0.0000)
  47 C      7.144968    6.100608    9.562822    ( 0.0000,  0.0000,  0.0000)
  48 C     10.093199    8.504823   10.165103    ( 0.0000,  0.0000,  0.0000)
  49 C      8.023191    8.490345    8.909018    ( 0.0000,  0.0000,  0.0000)
  50 C      9.509878    7.545460   11.207791    ( 0.0000,  0.0000,  0.0000)
  51 C      7.997254    7.727208   11.320844    ( 0.0000,  0.0000,  0.0000)
  52 C      7.262104    7.602245    9.941282    ( 0.0000,  0.0000,  0.0000)

Unit cell:
           periodic     x           y           z      points  spacing
  1. axis:    no    19.086200    0.000000    0.000000    90     0.2121
  2. axis:    no     0.000000   16.912900    0.000000    80     0.2114
  3. axis:    no     0.000000    0.000000   16.181500    75     0.2158

  Lengths:  19.086200  16.912900  16.181500
  Angles:   90.000000  90.000000  90.000000

Effective grid spacing dv^(1/3) = 0.2131

                     log10-error:    total        iterations:
           time      wfs    density  energy       poisson
iter:   1  23:51:41  -4.21         -321.264024           
iter:   2  23:52:02  -5.58  -3.28  -321.263942           
iter:   3  23:52:24  -5.09  -3.31  -321.263623           
iter:   4  23:52:48  -6.80  -3.66  -321.263621           
iter:   5  23:53:10  -6.50  -3.67  -321.263599           
iter:   6  23:53:32  -6.03  -3.89  -321.263603           
iter:   7  23:53:53  -6.71  -4.01  -321.263590           
iter:   8  23:54:16  -7.51  -4.35  -321.263590           

Converged after 8 iterations.

Dipole moment: (0.391746, 0.469495, -0.017632) |e|*Ang

Energy contributions relative to reference atoms: (reference = -46135.290654)

Kinetic:       +251.233082
Potential:     -270.392835
External:        +0.000000
XC:            -301.725491
Entropy (-ST):   +0.000000
Local:           -0.378346
--------------------------
Free energy:   -321.263590
Extrapolated:  -321.263590

 Band  Eigenvalues  Occupancy
    0    -28.05839    2.00000
    1    -26.78602    2.00000
    2    -25.94175    2.00000
    3    -25.63546    2.00000
    4    -23.03342    2.00000
    5    -21.67317    2.00000
    6    -20.77311    2.00000
    7    -20.50677    2.00000
    8    -20.02440    2.00000
    9    -19.49496    2.00000
   10    -18.78344    2.00000
   11    -18.41704    2.00000
   12    -18.13557    2.00000
   13    -18.02247    2.00000
   14    -17.86961    2.00000
   15    -17.11352    2.00000
   16    -16.61053    2.00000
   17    -16.29569    2.00000
   18    -15.60195    2.00000
   19    -15.08122    2.00000
   20    -14.76429    2.00000
   21    -14.61297    2.00000
   22    -14.34877    2.00000
   23    -14.05702    2.00000
   24    -13.99195    2.00000
   25    -13.62878    2.00000
   26    -13.01433    2.00000
   27    -12.44418    2.00000
   28    -12.06983    2.00000
   29    -12.02164    2.00000
   30    -11.93225    2.00000
   31    -11.78285    2.00000
   32    -11.37353    2.00000
   33    -11.27664    2.00000
   34    -11.07605    2.00000
   35    -11.04431    2.00000
   36    -11.00137    2.00000
   37    -10.88404    2.00000
   38    -10.69714    2.00000
   39    -10.50492    2.00000
   40    -10.35373    2.00000
   41    -10.13866    2.00000
   42    -10.03761    2.00000
   43    -10.03424    2.00000
   44     -9.85007    2.00000
   45     -9.74185    2.00000
   46     -9.60175    2.00000
   47     -9.44749    2.00000
   48     -9.35365    2.00000
   49     -9.27116    2.00000
   50     -9.26415    2.00000
   51     -9.12809    2.00000
   52     -8.95345    2.00000
   53     -8.77899    2.00000
   54     -8.67395    2.00000
   55     -8.59418    2.00000
   56     -8.31658    2.00000
   57     -8.18555    2.00000
   58     -8.00348    2.00000
   59     -7.96779    2.00000
   60     -7.86361    2.00000
   61     -7.77167    2.00000
   62     -7.63046    2.00000
   63     -7.52572    2.00000
   64     -7.46710    2.00000
   65     -7.28527    2.00000
   66     -7.15414    2.00000
   67     -6.83157    2.00000
   68     -6.51421    2.00000
   69     -5.96991    2.00000
   70     -5.89660    2.00000
   71     -5.78464    2.00000
   72     -5.63501    2.00000
   73     -5.41839    2.00000
   74     -5.24454    2.00000
   75     -4.32113    2.00000
   76     -2.29043    0.00000
   77     -1.69877    0.00000
   78     -0.86363    0.00000
   79     -0.83524    0.00000
   80     -0.77297    0.00000
   81     -0.65835    0.00000
   82     -0.59602    0.00000
   83     -0.20071    0.00000
   84      0.04555    0.00000
   85      0.16670    0.00000
   86      0.20575    0.00000
   87      0.30674    0.00000
   88      0.38241    0.00000
   89      0.45195    0.00000
   90      0.61706    0.00000
   91      0.70075    0.00000
   92      0.73426    0.00000
   93      0.73552    0.00000
   94      0.84615    0.00000
   95      0.88955    0.00000

Fermi level: -3.30578

Gap: 2.031 eV
Transition (v -> c):
  (s=0, k=0, n=75, [0.00, 0.00, 0.00]) -> (s=0, k=0, n=76, [0.00, 0.00, 0.00])

Forces in eV/Ang:
  0 H    -0.01202    0.01801    0.01147
  1 H    -0.02448    0.03442    0.01493
  2 H    -0.00641   -0.00891   -0.02957
  3 H    -0.00602    0.00103   -0.00124
  4 H     0.00285    0.00426    0.00962
  5 H    -0.00503    0.00598    0.01157
  6 H     0.00675   -0.00723   -0.01059
  7 H    -0.01801    0.00559    0.00063
  8 H     0.00094    0.01320    0.00216
  9 H     0.00357    0.00315    0.01751
 10 H    -0.02245    0.00289   -0.01242
 11 H     0.01269   -0.01490   -0.00667
 12 H     0.02463   -0.02517    0.00649
 13 H    -0.00786    0.01990   -0.00394
 14 H    -0.00217    0.00990   -0.01784
 15 H     0.00159    0.00821    0.00594
 16 H    -0.01229    0.00145   -0.00494
 17 H    -0.00156    0.00384    0.00866
 18 H     0.01746    0.00475    0.01534
 19 H     0.01176    0.02397   -0.02778
 20 H    -0.00154   -0.00346   -0.00178
 21 H     0.00634    0.00480   -0.00600
 22 H     0.02361    0.00873    0.00243
 23 H     0.00914    0.00310   -0.00224
 24 O    -0.02528   -0.00444    0.02013
 25 O     0.01924    0.00395   -0.01209
 26 Cl   -0.01694   -0.01107   -0.02666
 27 O    -0.00726    0.02072    0.02250
 28 O     0.01635    0.00910   -0.03498
 29 C    -0.00232    0.02907   -0.00485
 30 C     0.02993    0.00380    0.02923
 31 C    -0.00670   -0.00312    0.01424
 32 C     0.02590    0.01492   -0.02017
 33 C     0.00759    0.00086   -0.01143
 34 C    -0.00121   -0.01390    0.01702
 35 C    -0.00840    0.01131    0.00568
 36 C     0.01337   -0.00172    0.01141
 37 C    -0.00444    0.00619    0.01866
 38 C    -0.00302   -0.00151   -0.00253
 39 C     0.00682    0.00226   -0.00133
 40 C    -0.00291    0.00707    0.02990
 41 C     0.01497   -0.00406    0.02820
 42 C    -0.00530   -0.00309    0.01710
 43 C     0.00389    0.00943    0.01419
 44 C     0.00910    0.00373    0.01245
 45 N     0.01166   -0.00423   -0.00499
 46 C     0.00380   -0.01864   -0.00210
 47 C     0.00026   -0.03124   -0.00969
 48 C     0.00445    0.01411   -0.02423
 49 C    -0.00405   -0.00027    0.00868
 50 C     0.00306   -0.00304   -0.00718
 51 C    -0.02012    0.00400   -0.02279
 52 C     0.00289   -0.01456   -0.02281

Timing:                                      incl.     excl.
-------------------------------------------------------------------
Density initialized from wave functions:    48.013    48.012   0.9% |
 Symmetrize density:                         0.001     0.001   0.0% |
Forces:                                    266.225   266.225   5.2% |-|
Hamiltonian:                                40.827     1.828   0.0% |
 Atomic:                                     0.888     0.031   0.0% |
  XC Correction:                             0.857     0.857   0.0% |
 Calculate atomic Hamiltonians:             24.285    24.285   0.5% |
 Communicate:                                2.349     2.349   0.0% |
 Initialize Hamiltonian:                     0.002     0.002   0.0% |
 Poisson:                                    0.092     0.092   0.0% |
 XC 3D grid:                                11.383    11.383   0.2% |
LCAO initialization:                         5.386     0.823   0.0% |
 LCAO eigensolver:                           0.227     0.000   0.0% |
  Calculate projections:                     0.000     0.000   0.0% |
  DenseAtomicCorrection:                     0.000     0.000   0.0% |
  Distribute overlap matrix:                 0.210     0.210   0.0% |
  Orbital Layouts:                           0.010     0.010   0.0% |
  Potential matrix:                          0.006     0.006   0.0% |
 LCAO to grid:                               3.930     3.930   0.1% |
 Set positions (LCAO WFS):                   0.406     0.340   0.0% |
  Basic WFS set positions:                   0.003     0.003   0.0% |
  Basis functions set positions:             0.001     0.001   0.0% |
  P tci:                                     0.001     0.001   0.0% |
  ST tci:                                    0.013     0.013   0.0% |
  mktci:                                     0.049     0.049   0.0% |
PWDescriptor:                                0.253     0.253   0.0% |
Redistribute:                                0.025     0.025   0.0% |
SCF-cycle:                                3930.772     0.569   0.0% |
 Davidson:                                2925.803  1363.010  26.8% |----------|
  Apply H:                                 276.183   274.511   5.4% |-|
   HMM T:                                    1.672     1.672   0.0% |
  Subspace diag:                           389.163     0.091   0.0% |
   calc_h_matrix:                          341.127    30.821   0.6% |
    Apply H:                               310.306   308.549   6.1% |-|
     HMM T:                                  1.757     1.757   0.0% |
   diagonalize:                              2.597     2.597   0.1% |
   rotate_psi:                              45.348    45.348   0.9% |
  calc. matrices:                          812.279   204.510   4.0% |-|
   Apply H:                                607.769   604.078  11.9% |----|
    HMM T:                                   3.691     3.691   0.1% |
  diagonalize:                               7.934     7.934   0.2% |
  rotate_psi:                               77.233    77.233   1.5% ||
 Density:                                  532.633     0.015   0.0% |
  Atomic density matrices:                   1.041     1.041   0.0% |
  Mix:                                     347.163   347.163   6.8% |--|
  Multipole moments:                         0.160     0.160   0.0% |
  Pseudo density:                          184.254   184.247   3.6% ||
   Symmetrize density:                       0.007     0.007   0.0% |
 Hamiltonian:                              434.789    20.138   0.4% |
  Atomic:                                    9.862     0.292   0.0% |
   XC Correction:                            9.570     9.570   0.2% |
  Calculate atomic Hamiltonians:           251.144   251.144   4.9% |-|
  Communicate:                              24.281    24.281   0.5% |
  Poisson:                                   0.984     0.984   0.0% |
  XC 3D grid:                              128.380   128.380   2.5% ||
 Orthonormalize:                            36.978     0.014   0.0% |
  calc_s_matrix:                             1.638     1.638   0.0% |
  inverse-cholesky:                          0.199     0.199   0.0% |
  projections:                              33.850    33.850   0.7% |
  rotate_psi_s:                              1.276     1.276   0.0% |
Set symmetry:                                0.002     0.002   0.0% |
Other:                                     803.601   803.601  15.8% |-----|
-------------------------------------------------------------------
Total:                                              5095.103 100.0%

Memory usage: 1.37 GiB
Date: Thu Jul  8 00:07:12 2021
