9
Lattice="15.078 0.0 0.0 0.0 14.2171 0.0 0.0 0.0 14.5321" Properties=species:S:1:pos:R:3:forces:R:3:magmoms:R:1 energy=-44.95435432335772 dipole="-0.21597886026756596 -0.1261295350267007 0.2294860021920463" magmom=0.0 free_energy=-44.95435432335772 pbc="F F F"
H        8.11718158       6.62919391       6.03422550      -0.00053626      -0.00464882      -0.00223836       0.00000000
H        9.03883476       8.18018143       8.22157508       0.00179376      -0.00105918      -0.00789676       0.00000000
H        8.36918721       5.98203715       7.67184530       0.00488063       0.00298902      -0.00041036       0.00000000
C        8.07417454       6.88896380       7.10519776      -0.00591288       0.00003694      -0.00466936       0.00000000
O        9.04119568       7.92555719       7.27103503       0.00736024       0.00193956       0.00004519       0.00000000
H        6.34973543       8.19278874       6.90544623      -0.00101322      -0.00008262      -0.00164106       0.00000000
H        5.94730742       6.49859230       7.31790643      -0.00101369       0.00229737      -0.00186124       0.00000000
H        6.61603126       7.58197947       8.56227961      -0.00296202      -0.00390803       0.00039156       0.00000000
C        6.66794513       7.31601378       7.49174013      -0.00298990      -0.00485605      -0.00094563       0.00000000
