
  ___ ___ ___ _ _ _  
 |   |   |_  | | | | 
 | | | | | . | | | | 
 |__ |  _|___|_____|  21.6.0
 |___|_|             

User:   hanguo02@comput101.ghddi.org
Date:   Wed Jun 30 13:57:15 2021
Arch:   x86_64
Pid:    147376
Python: 3.6.8
gpaw:   /home/hanguo02/.local/lib/python3.6/site-packages/gpaw
_gpaw:  /home/hanguo02/.local/lib/python3.6/site-packages/
        _gpaw.cpython-36m-x86_64-linux-gnu.so
ase:    /home/hanguo02/.local/lib/python3.6/site-packages/ase (version 3.22.0)
numpy:  /usr/lib64/python3.6/site-packages/numpy (version 1.16.2)
scipy:  /usr/lib64/python3.6/site-packages/scipy (version 1.2.1)
libxc:  4.2.0
units:  Angstrom and eV
cores: 1
OpenMP: False
OMP_NUM_THREADS: 1

Input parameters:
  mode: {ecut: 400.0,
         gammacentered: False,
         name: pw}
  xc: PBE

System changes: positions, numbers, cell, pbc, initial_charges, initial_magmoms 

Initialize ...

H-setup:
  name: Hydrogen
  id: d65de229564ff8ea4db303e23b6d1ecf
  Z: 1.0
  valence: 1
  core: 0
  charge: 0.0
  file: /home/hanguo02/Software/GPAW/gpaw-setups-0.9.20000/H.PBE.gz
  compensation charges: gauss, rc=0.15, lmax=2
  cutoffs: 0.85(filt), 0.53(core),
  valence states:
                energy  radius
    1s(1.00)    -6.494   0.476
    *s          20.717   0.476
    *p           0.000   0.476

  Using partial waves for H as LCAO basis

C-setup:
  name: Carbon
  id: 4aa54d4b901d75f77cc0ea3eec22967b
  Z: 6.0
  valence: 4
  core: 2
  charge: 0.0
  file: /home/hanguo02/Software/GPAW/gpaw-setups-0.9.20000/C.PBE.gz
  compensation charges: gauss, rc=0.20, lmax=2
  cutoffs: 1.14(filt), 1.14(core),
  valence states:
                energy  radius
    2s(2.00)   -13.751   0.635
    2p(2.00)    -5.284   0.635
    *s          13.461   0.635
    *p          21.927   0.635
    *d           0.000   0.635

  Using partial waves for C as LCAO basis

O-setup:
  name: Oxygen
  id: 32ecd46bf208036f09c70b0ec9a88b78
  Z: 8.0
  valence: 6
  core: 2
  charge: 0.0
  file: /home/hanguo02/Software/GPAW/gpaw-setups-0.9.20000/O.PBE.gz
  compensation charges: gauss, rc=0.21, lmax=2
  cutoffs: 1.17(filt), 0.83(core),
  valence states:
                energy  radius
    2s(2.00)   -23.961   0.688
    2p(4.00)    -9.029   0.598
    *s           3.251   0.688
    *p          18.182   0.598
    *d           0.000   0.619

  Using partial waves for O as LCAO basis

Reference energy: -4171.049506

Spin-paired calculation

Convergence criteria:
  Maximum total energy change: 0.0005 eV / electron
  Maximum integral of absolute density change: 0.0001 electrons
  Maximum integral of absolute eigenstate change: 4e-08 eV^2
  Maximum number of iterations: 333

Symmetries present (total): 1

  ( 1  0  0)
  ( 0  1  0)
  ( 0  0  1)

1 k-point (Gamma)
1 k-point in the irreducible part of the Brillouin zone
       k-points in crystal coordinates                weights
   0:     0.00000000    0.00000000    0.00000000          1/1

Wave functions: Plane wave expansion
  Cutoff energy: 400.000 eV
  Number of coefficients: 56649 (reduced to 28325)
  Pulay-stress correction: 0.000000 eV/Ang^3 (de/decut=0.000000)
  Using Numpy's FFT
  ScaLapack parameters: grid=1x1, blocksize=None
  Wavefunction extrapolation:
    Improved wavefunction reuse through dual PAW basis 

Occupation numbers: width=0.000 eV 

Eigensolver
   Davidson(niter=2) 

Densities:
  Coarse grid: 70*70*70 grid
  Fine grid: 140*140*140 grid
  Total Charge: 0.000000 

Density mixing:
  Method: separate
  Backend: pulay
  Linear mixing parameter: 0.05
  Mixing with 5 old densities
  Damping of long wave oscillations: 50 

Hamiltonian:
  XC and Coulomb potentials evaluated on a 140*140*140 grid
  Using the PBE Exchange-Correlation functional
 

XC parameters: PBE with 2 nearest neighbor stencil

Memory estimate:
  Process memory now: 197.61 MiB
  Calculator: 259.37 MiB
    Density: 184.58 MiB
      Arrays: 68.04 MiB
      Localized functions: 90.37 MiB
      Mixer: 26.17 MiB
    Hamiltonian: 46.93 MiB
      Arrays: 44.49 MiB
      XC: 0.00 MiB
      Poisson: 0.00 MiB
      vbar: 2.44 MiB
    Wavefunctions: 27.86 MiB
      Arrays psit_nG: 6.92 MiB
      Eigensolver: 9.10 MiB
      Projections: 0.01 MiB
      Projectors: 4.75 MiB
      PW-descriptor: 7.09 MiB

Total number of cores used: 1

Number of atoms: 9
Number of atomic orbitals: 18
Number of bands in calculation: 16
Number of valence electrons: 20
Bands to converge: occupied

... initialized

Initializing position-dependent things.

Density initialized from atomic densities
Creating initial wave functions:
  16 bands from LCAO basis set

          .------------------------------------.  
         /|                                    |  
        / |                                    |  
       /  |                                    |  
      /   |                                    |  
     /    |                                    |  
    /     |                                    |  
   /      |                                    |  
  /       |                                    |  
 *        |                                    |  
 |        |                                    |  
 |        |                                    |  
 |        |           H     H                  |  
 |        |           C     O                  |  
 |        |         H    CH                    |  
 |        |              H                     |  
 |        |                                    |  
 |        |                                    |  
 |        .------------------------------------.  
 |       /                                    /   
 |      /                                    /    
 |     /                                    /     
 |    /                                    /      
 |   /                                    /       
 |  /                                    /        
 | /                                    /         
 |/                                    /          
 *------------------------------------*           

Positions:
   0 H      8.110000    6.564700    6.000000    ( 0.0000,  0.0000,  0.0000)
   1 H      9.078000    8.151200    8.152600    ( 0.0000,  0.0000,  0.0000)
   2 H      8.437200    6.000000    7.650100    ( 0.0000,  0.0000,  0.0000)
   3 C      8.119100    6.860100    7.053200    ( 0.0000,  0.0000,  0.0000)
   4 O      9.070300    7.902500    7.212600    ( 0.0000,  0.0000,  0.0000)
   5 H      6.447500    8.217100    6.896700    ( 0.0000,  0.0000,  0.0000)
   6 H      6.000000    6.554200    7.348400    ( 0.0000,  0.0000,  0.0000)
   7 H      6.755400    7.646600    8.532100    ( 0.0000,  0.0000,  0.0000)
   8 C      6.747900    7.341000    7.480700    ( 0.0000,  0.0000,  0.0000)

Unit cell:
           periodic     x           y           z      points  spacing
  1. axis:    no    15.078000    0.000000    0.000000    70     0.2154
  2. axis:    no     0.000000   14.217100    0.000000    70     0.2031
  3. axis:    no     0.000000    0.000000   14.532100    70     0.2076

  Lengths:  15.078000  14.217100  14.532100
  Angles:   90.000000  90.000000  90.000000

Effective grid spacing dv^(1/3) = 0.2086

                     log10-error:    total        iterations:
           time      wfs    density  energy       poisson
iter:   1  13:57:21                 -49.318803           
iter:   2  13:57:25  -1.05  -0.64   -48.616734           
iter:   3  13:57:28  -0.58  -0.67   -45.245447           
iter:   4  13:57:32  -2.22  -1.02   -45.270152           
iter:   5  13:57:35  -1.11  -1.02   -45.446226           
iter:   6  13:57:39  -1.15  -1.21   -44.933064           
iter:   7  13:57:42  -2.61  -1.82   -44.914649           
iter:   8  13:57:46  -2.58  -1.88   -44.909889           
iter:   9  13:57:49  -3.39  -2.38   -44.910023           
iter:  10  13:57:52  -2.68  -2.32   -44.915739           
iter:  11  13:57:56  -2.99  -2.18   -44.908739           
iter:  12  13:58:00  -3.95  -2.91   -44.908760           
iter:  13  13:58:03  -5.07  -2.98   -44.908747           
iter:  14  13:58:07  -5.90  -3.06   -44.908743           
iter:  15  13:58:10  -4.72  -3.12   -44.908804           
iter:  16  13:58:14  -4.92  -3.07   -44.908742           
iter:  17  13:58:17  -6.61  -3.21   -44.908742           
iter:  18  13:58:21  -5.07  -3.26   -44.908783           
iter:  19  13:58:24  -5.14  -3.37   -44.908750           
iter:  20  13:58:27  -6.51  -3.64   -44.908750           
iter:  21  13:58:31  -6.46  -3.69   -44.908751           
iter:  22  13:58:34  -5.87  -3.87   -44.908752           
iter:  23  13:58:38  -6.38  -3.92   -44.908750           
iter:  24  13:58:41  -7.24  -4.24   -44.908750           
iter:  25  13:58:45  -7.18  -4.27   -44.908749           
iter:  26  13:58:48  -7.97  -4.37   -44.908749           

Converged after 26 iterations.

Dipole moment: (-0.206985, -0.129548, 0.228956) |e|*Ang

Energy contributions relative to reference atoms: (reference = -4171.049506)

Kinetic:        +36.786285
Potential:      -39.779518
External:        +0.000000
XC:             -41.818007
Entropy (-ST):   +0.000000
Local:           -0.097510
--------------------------
Free energy:    -44.908749
Extrapolated:   -44.908749

 Band  Eigenvalues  Occupancy
    0    -25.61002    2.00000
    1    -18.41298    2.00000
    2    -15.28825    2.00000
    3    -12.25262    2.00000
    4    -11.06584    2.00000
    5    -10.40904    2.00000
    6     -9.15526    2.00000
    7     -8.83158    2.00000
    8     -7.60861    2.00000
    9     -6.07052    2.00000
   10     -0.61835    0.00000
   11     -0.03586    0.00000
   12      0.20001    0.00000
   13      0.20654    0.00000
   14      0.36328    0.00000
   15      0.51390    0.00000

Fermi level: -3.34443

Gap: 5.452 eV
Transition (v -> c):
  (s=0, k=0, n=9, [0.00, 0.00, 0.00]) -> (s=0, k=0, n=10, [0.00, 0.00, 0.00])

Forces in eV/Ang:
  0 H     0.18048    0.03654   -0.27290
  1 H    -0.01860    0.10323    0.48477
  2 H    -0.02311   -0.52040    0.13131
  3 C    -0.24058    0.51142    0.51804
  4 O     0.35476    0.12161   -0.77271
  5 H    -0.06163    0.13569   -0.20022
  6 H    -0.29637   -0.18738    0.02823
  7 H    -0.03093   -0.02807    0.32123
  8 C     0.01850   -0.15011   -0.15580

System changes: positions 

Initializing position-dependent things.

Density initialized from wave functions
          .------------------------------------.  
         /|                                    |  
        / |                                    |  
       /  |                                    |  
      /   |                                    |  
     /    |                                    |  
    /     |                                    |  
   /      |                                    |  
  /       |                                    |  
 *        |                                    |  
 |        |                                    |  
 |        |                                    |  
 |        |           H     H                  |  
 |        |           C     O                  |  
 |        |         H    H                     |  
 |        |              H                     |  
 |        |                                    |  
 |        |                                    |  
 |        .------------------------------------.  
 |       /                                    /   
 |      /                                    /    
 |     /                                    /     
 |    /                                    /      
 |   /                                    /       
 |  /                                    /        
 | /                                    /         
 |/                                    /          
 *------------------------------------*           

Positions:
   0 H      8.112578    6.565222    5.996101    ( 0.0000,  0.0000,  0.0000)
   1 H      9.077734    8.152675    8.159525    ( 0.0000,  0.0000,  0.0000)
   2 H      8.436870    5.992566    7.651976    ( 0.0000,  0.0000,  0.0000)
   3 C      8.115663    6.867406    7.060601    ( 0.0000,  0.0000,  0.0000)
   4 O      9.075368    7.904237    7.201561    ( 0.0000,  0.0000,  0.0000)
   5 H      6.446620    8.219038    6.893840    ( 0.0000,  0.0000,  0.0000)
   6 H      5.995766    6.551523    7.348803    ( 0.0000,  0.0000,  0.0000)
   7 H      6.754958    7.646199    8.536689    ( 0.0000,  0.0000,  0.0000)
   8 C      6.748164    7.338856    7.478474    ( 0.0000,  0.0000,  0.0000)

Unit cell:
           periodic     x           y           z      points  spacing
  1. axis:    no    15.078000    0.000000    0.000000    70     0.2154
  2. axis:    no     0.000000   14.217100    0.000000    70     0.2031
  3. axis:    no     0.000000    0.000000   14.532100    70     0.2076

  Lengths:  15.078000  14.217100  14.532100
  Angles:   90.000000  90.000000  90.000000

Effective grid spacing dv^(1/3) = 0.2086

                     log10-error:    total        iterations:
           time      wfs    density  energy       poisson
iter:   1  13:58:54  -2.50          -44.929416           
iter:   2  13:58:58  -3.87  -2.30   -44.928856           
iter:   3  13:59:02  -3.09  -2.31   -44.925903           
iter:   4  13:59:05  -4.88  -2.71   -44.925715           
iter:   5  13:59:09  -4.41  -2.75   -44.926151           
iter:   6  13:59:12  -4.01  -2.59   -44.925526           
iter:   7  13:59:16  -5.11  -3.36   -44.925568           
iter:   8  13:59:19  -5.23  -3.17   -44.925540           
iter:   9  13:59:23  -5.86  -3.48   -44.925531           
iter:  10  13:59:27  -6.11  -3.79   -44.925534           
iter:  11  13:59:30  -5.85  -3.67   -44.925532           
iter:  12  13:59:34  -6.66  -3.87   -44.925530           
iter:  13  13:59:37  -7.03  -4.30   -44.925530           
iter:  14  13:59:41  -7.75  -4.52   -44.925530           

Converged after 14 iterations.

Dipole moment: (-0.210369, -0.126006, 0.233378) |e|*Ang

Energy contributions relative to reference atoms: (reference = -4171.049506)

Kinetic:        +35.164027
Potential:      -38.635495
External:        +0.000000
XC:             -41.357454
Entropy (-ST):   +0.000000
Local:           -0.096608
--------------------------
Free energy:    -44.925530
Extrapolated:   -44.925530

 Band  Eigenvalues  Occupancy
    0    -25.56352    2.00000
    1    -18.41713    2.00000
    2    -15.19989    2.00000
    3    -12.21194    2.00000
    4    -11.01275    2.00000
    5    -10.44312    2.00000
    6     -9.14048    2.00000
    7     -8.80476    2.00000
    8     -7.61550    2.00000
    9     -6.08996    2.00000
   10     -0.64375    0.00000
   11     -0.05530    0.00000
   12      0.19315    0.00000
   13      0.20366    0.00000
   14      0.35532    0.00000
   15      0.51236    0.00000

Fermi level: -3.36685

Gap: 5.446 eV
Transition (v -> c):
  (s=0, k=0, n=9, [0.00, 0.00, 0.00]) -> (s=0, k=0, n=10, [0.00, 0.00, 0.00])

Forces in eV/Ang:
  0 H     0.13204    0.11458    0.09010
  1 H     0.04405   -0.01546   -0.26551
  2 H    -0.08966   -0.24266    0.02505
  3 C     0.05561   -0.03387   -0.03730
  4 O     0.21163    0.27072    0.15016
  5 H    -0.04094    0.03651   -0.12527
  6 H    -0.18894   -0.12292    0.02444
  7 H    -0.06198   -0.06766    0.11881
  8 C    -0.19447    0.08069    0.09335

System changes: positions 

Initializing position-dependent things.

Density initialized from wave functions
          .------------------------------------.  
         /|                                    |  
        / |                                    |  
       /  |                                    |  
      /   |                                    |  
     /    |                                    |  
    /     |                                    |  
   /      |                                    |  
  /       |                                    |  
 *        |                                    |  
 |        |                                    |  
 |        |                                    |  
 |        |           H     H                  |  
 |        |           C     O                  |  
 |        |         H    H                     |  
 |        |              H                     |  
 |        |                                    |  
 |        |                                    |  
 |        .------------------------------------.  
 |       /                                    /   
 |      /                                    /    
 |     /                                    /     
 |    /                                    /      
 |   /                                    /       
 |  /                                    /        
 | /                                    /         
 |/                                    /          
 *------------------------------------*           

Positions:
   0 H      8.115081    6.567023    5.996586    ( 0.0000,  0.0000,  0.0000)
   1 H      9.078326    8.152766    8.157110    ( 0.0000,  0.0000,  0.0000)
   2 H      8.435478    5.987384    7.652750    ( 0.0000,  0.0000,  0.0000)
   3 C      8.115740    6.868486    7.061650    ( 0.0000,  0.0000,  0.0000)
   4 O      9.079581    7.908601    7.201388    ( 0.0000,  0.0000,  0.0000)
   5 H      6.445826    8.219995    6.891376    ( 0.0000,  0.0000,  0.0000)
   6 H      5.992068    6.549134    7.349251    ( 0.0000,  0.0000,  0.0000)
   7 H      6.753950    7.645116    8.539431    ( 0.0000,  0.0000,  0.0000)
   8 C      6.745356    7.339581    7.479369    ( 0.0000,  0.0000,  0.0000)

Unit cell:
           periodic     x           y           z      points  spacing
  1. axis:    no    15.078000    0.000000    0.000000    70     0.2154
  2. axis:    no     0.000000   14.217100    0.000000    70     0.2031
  3. axis:    no     0.000000    0.000000   14.532100    70     0.2076

  Lengths:  15.078000  14.217100  14.532100
  Angles:   90.000000  90.000000  90.000000

Effective grid spacing dv^(1/3) = 0.2086

                     log10-error:    total        iterations:
           time      wfs    density  energy       poisson
iter:   1  13:59:47  -3.31          -44.931437           
iter:   2  13:59:50  -4.70  -2.75   -44.931374           
iter:   3  13:59:54  -3.82  -2.76   -44.931057           
iter:   4  13:59:57  -5.54  -3.18   -44.931016           
iter:   5  14:00:01  -4.86  -3.20   -44.931105           
iter:   6  14:00:04  -4.63  -3.04   -44.931000           
iter:   7  14:00:08  -6.30  -3.77   -44.930998           
iter:   8  14:00:11  -6.07  -3.79   -44.931000           
iter:   9  14:00:15  -5.49  -3.80   -44.931004           
iter:  10  14:00:18  -6.99  -3.74   -44.931003           
iter:  11  14:00:22  -5.86  -3.73   -44.930998           
iter:  12  14:00:25  -7.38  -4.67   -44.930998           
iter:  13  14:00:29  -7.75  -4.60   -44.930998           

Converged after 13 iterations.

Dipole moment: (-0.213191, -0.128164, 0.232627) |e|*Ang

Energy contributions relative to reference atoms: (reference = -4171.049506)

Kinetic:        +34.534616
Potential:      -38.170316
External:        +0.000000
XC:             -41.198642
Entropy (-ST):   +0.000000
Local:           -0.096656
--------------------------
Free energy:    -44.930998
Extrapolated:   -44.930998

 Band  Eigenvalues  Occupancy
    0    -25.54590    2.00000
    1    -18.41112    2.00000
    2    -15.18709    2.00000
    3    -12.19156    2.00000
    4    -10.99447    2.00000
    5    -10.42923    2.00000
    6     -9.13228    2.00000
    7     -8.80530    2.00000
    8     -7.63628    2.00000
    9     -6.10227    2.00000
   10     -0.64203    0.00000
   11     -0.05078    0.00000
   12      0.19064    0.00000
   13      0.20231    0.00000
   14      0.35343    0.00000
   15      0.51197    0.00000

Fermi level: -3.37215

Gap: 5.460 eV
Transition (v -> c):
  (s=0, k=0, n=9, [0.00, 0.00, 0.00]) -> (s=0, k=0, n=10, [0.00, 0.00, 0.00])

Forces in eV/Ang:
  0 H     0.11996    0.12019    0.10506
  1 H     0.06236    0.03921   -0.12337
  2 H    -0.10293   -0.10559   -0.03107
  3 C     0.12545   -0.05176   -0.01229
  4 O     0.05589    0.07973    0.04402
  5 H    -0.04142    0.00139   -0.08118
  6 H    -0.11897   -0.05305    0.03110
  7 H    -0.07606   -0.06496    0.07028
  8 C    -0.16185    0.05101    0.07495

System changes: positions 

Initializing position-dependent things.

Density initialized from wave functions
          .------------------------------------.  
         /|                                    |  
        / |                                    |  
       /  |                                    |  
      /   |                                    |  
     /    |                                    |  
    /     |                                    |  
   /      |                                    |  
  /       |                                    |  
 *        |                                    |  
 |        |                                    |  
 |        |                                    |  
 |        |           H     H                  |  
 |        |           C     O                  |  
 |        |         H    H                     |  
 |        |              H                     |  
 |        |                                    |  
 |        |                                    |  
 |        .------------------------------------.  
 |       /                                    /   
 |      /                                    /    
 |     /                                    /     
 |    /                                    /      
 |   /                                    /       
 |  /                                    /        
 | /                                    /         
 |/                                    /          
 *------------------------------------*           

Positions:
   0 H      8.120422    6.571570    5.999029    ( 0.0000,  0.0000,  0.0000)
   1 H      9.080409    8.154364    8.154052    ( 0.0000,  0.0000,  0.0000)
   2 H      8.431675    5.980160    7.652590    ( 0.0000,  0.0000,  0.0000)
   3 C      8.118747    6.869165    7.063544    ( 0.0000,  0.0000,  0.0000)
   4 O      9.084299    7.913286    7.199928    ( 0.0000,  0.0000,  0.0000)
   5 H      6.444014    8.220917    6.887164    ( 0.0000,  0.0000,  0.0000)
   6 H      5.985847    6.545856    7.350486    ( 0.0000,  0.0000,  0.0000)
   7 H      6.751099    7.642583    8.543855    ( 0.0000,  0.0000,  0.0000)
   8 C      6.739313    7.340909    7.481478    ( 0.0000,  0.0000,  0.0000)

Unit cell:
           periodic     x           y           z      points  spacing
  1. axis:    no    15.078000    0.000000    0.000000    70     0.2154
  2. axis:    no     0.000000   14.217100    0.000000    70     0.2031
  3. axis:    no     0.000000    0.000000   14.532100    70     0.2076

  Lengths:  15.078000  14.217100  14.532100
  Angles:   90.000000  90.000000  90.000000

Effective grid spacing dv^(1/3) = 0.2086

                     log10-error:    total        iterations:
           time      wfs    density  energy       poisson
iter:   1  14:00:34  -2.97          -44.936573           
iter:   2  14:00:38  -4.37  -2.52   -44.936411           
iter:   3  14:00:41  -3.43  -2.53   -44.935654           
iter:   4  14:00:45  -4.94  -2.95   -44.935530           
iter:   5  14:00:48  -4.25  -2.96   -44.935858           
iter:   6  14:00:51  -4.11  -2.77   -44.935493           
iter:   7  14:00:55  -5.55  -3.57   -44.935492           
iter:   8  14:00:58  -5.69  -3.52   -44.935485           
iter:   9  14:01:02  -5.92  -3.91   -44.935490           
iter:  10  14:01:05  -5.63  -3.70   -44.935486           
iter:  11  14:01:09  -6.93  -4.03   -44.935485           
iter:  12  14:01:12  -7.06  -4.41   -44.935485           
iter:  13  14:01:16  -8.12  -4.74   -44.935485           

Converged after 13 iterations.

Dipole moment: (-0.213363, -0.129852, 0.232198) |e|*Ang

Energy contributions relative to reference atoms: (reference = -4171.049506)

Kinetic:        +33.729218
Potential:      -37.572341
External:        +0.000000
XC:             -40.996565
Entropy (-ST):   +0.000000
Local:           -0.095796
--------------------------
Free energy:    -44.935485
Extrapolated:   -44.935485

 Band  Eigenvalues  Occupancy
    0    -25.53649    2.00000
    1    -18.37584    2.00000
    2    -15.18092    2.00000
    3    -12.17636    2.00000
    4    -10.96462    2.00000
    5    -10.40091    2.00000
    6     -9.11274    2.00000
    7     -8.81689    2.00000
    8     -7.66354    2.00000
    9     -6.11569    2.00000
   10     -0.64186    0.00000
   11     -0.04690    0.00000
   12      0.18931    0.00000
   13      0.20101    0.00000
   14      0.35216    0.00000
   15      0.51164    0.00000

Fermi level: -3.37877

Gap: 5.474 eV
Transition (v -> c):
  (s=0, k=0, n=9, [0.00, 0.00, 0.00]) -> (s=0, k=0, n=10, [0.00, 0.00, 0.00])

Forces in eV/Ang:
  0 H     0.09690    0.09779    0.06586
  1 H     0.08358    0.08714   -0.01825
  2 H    -0.08018    0.01956   -0.05946
  3 C     0.01844   -0.00730    0.03761
  4 O    -0.07793   -0.09691    0.00463
  5 H    -0.04338   -0.04477   -0.01210
  6 H    -0.03298    0.03233    0.03672
  7 H    -0.09626   -0.04910    0.01566
  8 C    -0.01242   -0.02990    0.00371

System changes: positions 

Initializing position-dependent things.

Density initialized from wave functions
          .------------------------------------.  
         /|                                    |  
        / |                                    |  
       /  |                                    |  
      /   |                                    |  
     /    |                                    |  
    /     |                                    |  
   /      |                                    |  
  /       |                                    |  
 *        |                                    |  
 |        |                                    |  
 |        |                                    |  
 |        |           H     H                  |  
 |        |           C     O                  |  
 |        |         H    H                     |  
 |        |              H                     |  
 |        |                                    |  
 |        |                                    |  
 |        .------------------------------------.  
 |       /                                    /   
 |      /                                    /    
 |     /                                    /     
 |    /                                    /      
 |   /                                    /       
 |  /                                    /        
 | /                                    /         
 |/                                    /          
 *------------------------------------*           

Positions:
   0 H      8.124085    6.574872    6.000889    ( 0.0000,  0.0000,  0.0000)
   1 H      9.082577    8.156371    8.152448    ( 0.0000,  0.0000,  0.0000)
   2 H      8.428975    5.977497    7.651671    ( 0.0000,  0.0000,  0.0000)
   3 C      8.119743    6.869524    7.064997    ( 0.0000,  0.0000,  0.0000)
   4 O      9.085050    7.913691    7.199564    ( 0.0000,  0.0000,  0.0000)
   5 H      6.442590    8.220557    6.885334    ( 0.0000,  0.0000,  0.0000)
   6 H      5.982848    6.545079    7.351562    ( 0.0000,  0.0000,  0.0000)
   7 H      6.748411    7.640821    8.545885    ( 0.0000,  0.0000,  0.0000)
   8 C      6.737008    7.340822    7.482231    ( 0.0000,  0.0000,  0.0000)

Unit cell:
           periodic     x           y           z      points  spacing
  1. axis:    no    15.078000    0.000000    0.000000    70     0.2154
  2. axis:    no     0.000000   14.217100    0.000000    70     0.2031
  3. axis:    no     0.000000    0.000000   14.532100    70     0.2076

  Lengths:  15.078000  14.217100  14.532100
  Angles:   90.000000  90.000000  90.000000

Effective grid spacing dv^(1/3) = 0.2086

                     log10-error:    total        iterations:
           time      wfs    density  energy       poisson
iter:   1  14:01:21  -3.69          -44.937289           
iter:   2  14:01:25  -5.13  -2.87   -44.937265           
iter:   3  14:01:28  -4.14  -2.88   -44.937162           
iter:   4  14:01:32  -5.74  -3.22   -44.937119           
iter:   5  14:01:35  -5.32  -3.29   -44.937177           
iter:   6  14:01:39  -4.85  -3.11   -44.937103           
iter:   7  14:01:42  -6.32  -3.89   -44.937104           
iter:   8  14:01:46  -6.49  -3.85   -44.937103           
iter:   9  14:01:49  -6.81  -4.19   -44.937103           
iter:  10  14:01:53  -7.10  -4.24   -44.937103           
iter:  11  14:01:56  -7.68  -4.37   -44.937103           

Converged after 11 iterations.

Dipole moment: (-0.212140, -0.129307, 0.232261) |e|*Ang

Energy contributions relative to reference atoms: (reference = -4171.049506)

Kinetic:        +33.583283
Potential:      -37.464051
External:        +0.000000
XC:             -40.961424
Entropy (-ST):   +0.000000
Local:           -0.094911
--------------------------
Free energy:    -44.937103
Extrapolated:   -44.937103

 Band  Eigenvalues  Occupancy
    0    -25.54336    2.00000
    1    -18.36271    2.00000
    2    -15.18569    2.00000
    3    -12.17906    2.00000
    4    -10.95453    2.00000
    5    -10.39602    2.00000
    6     -9.10264    2.00000
    7     -8.81910    2.00000
    8     -7.66883    2.00000
    9     -6.12056    2.00000
   10     -0.64097    0.00000
   11     -0.04535    0.00000
   12      0.18982    0.00000
   13      0.20055    0.00000
   14      0.35189    0.00000
   15      0.51147    0.00000

Fermi level: -3.38076

Gap: 5.480 eV
Transition (v -> c):
  (s=0, k=0, n=9, [0.00, 0.00, 0.00]) -> (s=0, k=0, n=10, [0.00, 0.00, 0.00])

Forces in eV/Ang:
  0 H     0.07666    0.07694    0.03178
  1 H     0.08377    0.09680    0.01960
  2 H    -0.05993    0.03931   -0.04827
  3 C    -0.04318    0.00505    0.04411
  4 O    -0.08632   -0.11632    0.00090
  5 H    -0.03957   -0.06456    0.01877
  6 H    -0.00455    0.04962    0.03221
  7 H    -0.09698   -0.04178   -0.01427
  8 C     0.02409   -0.03786   -0.01010

System changes: positions 

Initializing position-dependent things.

Density initialized from wave functions
          .------------------------------------.  
         /|                                    |  
        / |                                    |  
       /  |                                    |  
      /   |                                    |  
     /    |                                    |  
    /     |                                    |  
   /      |                                    |  
  /       |                                    |  
 *        |                                    |  
 |        |                                    |  
 |        |                                    |  
 |        |           H     H                  |  
 |        |           C     O                  |  
 |        |         H    H                     |  
 |        |              H                     |  
 |        |                                    |  
 |        |                                    |  
 |        .------------------------------------.  
 |       /                                    /   
 |      /                                    /    
 |     /                                    /     
 |    /                                    /      
 |   /                                    /       
 |  /                                    /        
 | /                                    /         
 |/                                    /          
 *------------------------------------*           

Positions:
   0 H      8.132843    6.582928    6.004981    ( 0.0000,  0.0000,  0.0000)
   1 H      9.088767    8.162483    8.149479    ( 0.0000,  0.0000,  0.0000)
   2 H      8.422517    5.973074    7.649021    ( 0.0000,  0.0000,  0.0000)
   3 C      8.119910    6.870265    7.068609    ( 0.0000,  0.0000,  0.0000)
   4 O      9.084888    7.912259    7.199531    ( 0.0000,  0.0000,  0.0000)
   5 H      6.438927    8.218151    6.882449    ( 0.0000,  0.0000,  0.0000)
   6 H      5.977004    6.544701    7.354346    ( 0.0000,  0.0000,  0.0000)
   7 H      6.740878    7.636432    8.549217    ( 0.0000,  0.0000,  0.0000)
   8 C      6.733176    7.339937    7.483535    ( 0.0000,  0.0000,  0.0000)

Unit cell:
           periodic     x           y           z      points  spacing
  1. axis:    no    15.078000    0.000000    0.000000    70     0.2154
  2. axis:    no     0.000000   14.217100    0.000000    70     0.2031
  3. axis:    no     0.000000    0.000000   14.532100    70     0.2076

  Lengths:  15.078000  14.217100  14.532100
  Angles:   90.000000  90.000000  90.000000

Effective grid spacing dv^(1/3) = 0.2086

                     log10-error:    total        iterations:
           time      wfs    density  energy       poisson
iter:   1  14:02:02  -3.01          -44.940567           
iter:   2  14:02:05  -4.40  -2.56   -44.940528           
iter:   3  14:02:09  -3.96  -2.57   -44.940066           
iter:   4  14:02:12  -4.89  -3.04   -44.940096           
iter:   5  14:02:16  -5.51  -3.06   -44.940040           
iter:   6  14:02:19  -5.21  -3.17   -44.940021           
iter:   7  14:02:23  -6.79  -3.61   -44.940021           
iter:   8  14:02:26  -6.01  -3.63   -44.940022           
iter:   9  14:02:30  -6.29  -3.86   -44.940021           
iter:  10  14:02:33  -7.07  -4.08   -44.940021           
iter:  11  14:02:37  -7.41  -4.04   -44.940021           

Converged after 11 iterations.

Dipole moment: (-0.209049, -0.126548, 0.232779) |e|*Ang

Energy contributions relative to reference atoms: (reference = -4171.049506)

Kinetic:        +33.594005
Potential:      -37.471471
External:        +0.000000
XC:             -40.967999
Entropy (-ST):   +0.000000
Local:           -0.094555
--------------------------
Free energy:    -44.940021
Extrapolated:   -44.940021

 Band  Eigenvalues  Occupancy
    0    -25.55851    2.00000
    1    -18.34945    2.00000
    2    -15.20394    2.00000
    3    -12.19103    2.00000
    4    -10.93964    2.00000
    5    -10.39869    2.00000
    6     -9.08674    2.00000
    7     -8.81790    2.00000
    8     -7.66875    2.00000
    9     -6.12675    2.00000
   10     -0.63828    0.00000
   11     -0.04304    0.00000
   12      0.19198    0.00000
   13      0.19996    0.00000
   14      0.35144    0.00000
   15      0.51103    0.00000

Fermi level: -3.38251

Gap: 5.488 eV
Transition (v -> c):
  (s=0, k=0, n=9, [0.00, 0.00, 0.00]) -> (s=0, k=0, n=10, [0.00, 0.00, 0.00])

Forces in eV/Ang:
  0 H     0.02088    0.02788   -0.03848
  1 H     0.07028    0.09335    0.06449
  2 H    -0.01969    0.04036   -0.00639
  3 C    -0.12175    0.01180    0.03456
  4 O    -0.04669   -0.08402    0.01449
  5 H    -0.03385   -0.07659    0.06046
  6 H     0.03132    0.05095    0.01357
  7 H    -0.08521   -0.02064   -0.05223
  8 C     0.03933   -0.03789   -0.01924

System changes: positions 

Initializing position-dependent things.

Density initialized from wave functions
          .------------------------------------.  
         /|                                    |  
        / |                                    |  
       /  |                                    |  
      /   |                                    |  
     /    |                                    |  
    /     |                                    |  
   /      |                                    |  
  /       |                                    |  
 *        |                                    |  
 |        |                                    |  
 |        |                                    |  
 |        |           H     H                  |  
 |        |           C     O                  |  
 |        |         H    H                     |  
 |        |              H                     |  
 |        |                                    |  
 |        |                                    |  
 |        .------------------------------------.  
 |       /                                    /   
 |      /                                    /    
 |     /                                    /     
 |    /                                    /      
 |   /                                    /       
 |  /                                    /        
 | /                                    /         
 |/                                    /          
 *------------------------------------*           

Positions:
   0 H      8.139269    6.589105    6.007285    ( 0.0000,  0.0000,  0.0000)
   1 H      9.094459    8.168436    8.148129    ( 0.0000,  0.0000,  0.0000)
   2 H      8.417595    5.970874    7.647033    ( 0.0000,  0.0000,  0.0000)
   3 C      8.117928    6.870649    7.071415    ( 0.0000,  0.0000,  0.0000)
   4 O      9.083902    7.909869    7.200426    ( 0.0000,  0.0000,  0.0000)
   5 H      6.435713    8.215001    6.881619    ( 0.0000,  0.0000,  0.0000)
   6 H      5.973570    6.545399    7.356522    ( 0.0000,  0.0000,  0.0000)
   7 H      6.733977    7.632976    8.550462    ( 0.0000,  0.0000,  0.0000)
   8 C      6.731031    7.338717    7.484238    ( 0.0000,  0.0000,  0.0000)

Unit cell:
           periodic     x           y           z      points  spacing
  1. axis:    no    15.078000    0.000000    0.000000    70     0.2154
  2. axis:    no     0.000000   14.217100    0.000000    70     0.2031
  3. axis:    no     0.000000    0.000000   14.532100    70     0.2076

  Lengths:  15.078000  14.217100  14.532100
  Angles:   90.000000  90.000000  90.000000

Effective grid spacing dv^(1/3) = 0.2086

                     log10-error:    total        iterations:
           time      wfs    density  energy       poisson
iter:   1  14:02:42  -3.19          -44.941900           
iter:   2  14:02:46  -4.57  -2.72   -44.941903           
iter:   3  14:02:49  -4.68  -2.72   -44.941706           
iter:   4  14:02:53  -5.28  -3.16   -44.941702           
iter:   5  14:02:56  -6.20  -3.35   -44.941695           
iter:   6  14:03:00  -6.28  -3.42   -44.941696           
iter:   7  14:03:03  -7.09  -3.68   -44.941695           
iter:   8  14:03:07  -6.36  -3.86   -44.941694           
iter:   9  14:03:10  -7.73  -4.38   -44.941694           

Converged after 9 iterations.

Dipole moment: (-0.207334, -0.123631, 0.233420) |e|*Ang

Energy contributions relative to reference atoms: (reference = -4171.049506)

Kinetic:        +33.791323
Potential:      -37.617211
External:        +0.000000
XC:             -41.021143
Entropy (-ST):   +0.000000
Local:           -0.094662
--------------------------
Free energy:    -44.941694
Extrapolated:   -44.941694

 Band  Eigenvalues  Occupancy
    0    -25.56174    2.00000
    1    -18.35173    2.00000
    2    -15.21972    2.00000
    3    -12.19913    2.00000
    4    -10.93211    2.00000
    5    -10.40832    2.00000
    6     -9.07942    2.00000
    7     -8.81037    2.00000
    8     -7.66088    2.00000
    9     -6.12927    2.00000
   10     -0.63563    0.00000
   11     -0.04239    0.00000
   12      0.19403    0.00000
   13      0.20009    0.00000
   14      0.35116    0.00000
   15      0.51069    0.00000

Fermi level: -3.38245

Gap: 5.494 eV
Transition (v -> c):
  (s=0, k=0, n=9, [0.00, 0.00, 0.00]) -> (s=0, k=0, n=10, [0.00, 0.00, 0.00])

Forces in eV/Ang:
  0 H    -0.02919   -0.00529   -0.06652
  1 H     0.04596    0.06824    0.06775
  2 H     0.00166    0.02058    0.02812
  3 C    -0.11128    0.00936    0.00708
  4 O    -0.00409   -0.02421    0.04146
  5 H    -0.03300   -0.05710    0.06681
  6 H     0.03294    0.02028   -0.00678
  7 H    -0.06493   -0.00205   -0.05564
  8 C     0.01601   -0.02635   -0.01128

System changes: positions 

Initializing position-dependent things.

Density initialized from wave functions
          .------------------------------------.  
         /|                                    |  
        / |                                    |  
       /  |                                    |  
      /   |                                    |  
     /    |                                    |  
    /     |                                    |  
   /      |                                    |  
  /       |                                    |  
 *        |                                    |  
 |        |                                    |  
 |        |                                    |  
 |        |           H      H                 |  
 |        |           C     O                  |  
 |        |         H    H                     |  
 |        |              H                     |  
 |        |                                    |  
 |        |                                    |  
 |        .------------------------------------.  
 |       /                                    /   
 |      /                                    /    
 |     /                                    /     
 |    /                                    /      
 |   /                                    /       
 |  /                                    /        
 | /                                    /         
 |/                                    /          
 *------------------------------------*           

Positions:
   0 H      8.141947    6.592267    6.007482    ( 0.0000,  0.0000,  0.0000)
   1 H      9.098368    8.172846    8.148466    ( 0.0000,  0.0000,  0.0000)
   2 H      8.414993    5.970593    7.646363    ( 0.0000,  0.0000,  0.0000)
   3 C      8.115127    6.870707    7.072709    ( 0.0000,  0.0000,  0.0000)
   4 O      9.082863    7.907862    7.202159    ( 0.0000,  0.0000,  0.0000)
   5 H      6.433381    8.212201    6.882582    ( 0.0000,  0.0000,  0.0000)
   6 H      5.972605    6.546300    7.357519    ( 0.0000,  0.0000,  0.0000)
   7 H      6.729086    7.631153    8.549885    ( 0.0000,  0.0000,  0.0000)
   8 C      6.730230    7.337560    7.484448    ( 0.0000,  0.0000,  0.0000)

Unit cell:
           periodic     x           y           z      points  spacing
  1. axis:    no    15.078000    0.000000    0.000000    70     0.2154
  2. axis:    no     0.000000   14.217100    0.000000    70     0.2031
  3. axis:    no     0.000000    0.000000   14.532100    70     0.2076

  Lengths:  15.078000  14.217100  14.532100
  Angles:   90.000000  90.000000  90.000000

Effective grid spacing dv^(1/3) = 0.2086

                     log10-error:    total        iterations:
           time      wfs    density  energy       poisson
iter:   1  14:03:16  -3.48          -44.942849           
iter:   2  14:03:19  -4.86  -2.88   -44.942836           
iter:   3  14:03:23  -4.62  -2.89   -44.942691           
iter:   4  14:03:26  -5.73  -3.22   -44.942689           
iter:   5  14:03:30  -5.13  -3.26   -44.942696           
iter:   6  14:03:33  -5.29  -3.40   -44.942676           
iter:   7  14:03:37  -6.26  -3.84   -44.942677           
iter:   8  14:03:40  -6.35  -3.81   -44.942675           
iter:   9  14:03:44  -8.08  -4.35   -44.942675           

Converged after 9 iterations.

Dipole moment: (-0.207580, -0.121879, 0.233830) |e|*Ang

Energy contributions relative to reference atoms: (reference = -4171.049506)

Kinetic:        +34.010911
Potential:      -37.778558
External:        +0.000000
XC:             -41.080254
Entropy (-ST):   +0.000000
Local:           -0.094774
--------------------------
Free energy:    -44.942675
Extrapolated:   -44.942675

 Band  Eigenvalues  Occupancy
    0    -25.55095    2.00000
    1    -18.36494    2.00000
    2    -15.22990    2.00000
    3    -12.20031    2.00000
    4    -10.93221    2.00000
    5    -10.41929    2.00000
    6     -9.08061    2.00000
    7     -8.80269    2.00000
    8     -7.65037    2.00000
    9     -6.12656    2.00000
   10     -0.63351    0.00000
   11     -0.04195    0.00000
   12      0.19508    0.00000
   13      0.20048    0.00000
   14      0.35099    0.00000
   15      0.51049    0.00000

Fermi level: -3.38003

Gap: 5.493 eV
Transition (v -> c):
  (s=0, k=0, n=9, [0.00, 0.00, 0.00]) -> (s=0, k=0, n=10, [0.00, 0.00, 0.00])

Forces in eV/Ang:
  0 H    -0.05471   -0.01425   -0.05556
  1 H     0.02064    0.03726    0.05153
  2 H     0.00303   -0.00017    0.04043
  3 C    -0.04191    0.00849   -0.00869
  4 O     0.01996    0.02368    0.05334
  5 H    -0.03764   -0.01921    0.04377
  6 H     0.00869   -0.02299   -0.02165
  7 H    -0.04566    0.00948   -0.02743
  8 C    -0.01254   -0.00821   -0.00258

System changes: positions 

Initializing position-dependent things.

Density initialized from wave functions
          .------------------------------------.  
         /|                                    |  
        / |                                    |  
       /  |                                    |  
      /   |                                    |  
     /    |                                    |  
    /     |                                    |  
   /      |                                    |  
  /       |                                    |  
 *        |                                    |  
 |        |                                    |  
 |        |                                    |  
 |        |           H      H                 |  
 |        |           C     O                  |  
 |        |         H    H                     |  
 |        |              H                     |  
 |        |                                    |  
 |        |                                    |  
 |        .------------------------------------.  
 |       /                                    /   
 |      /                                    /    
 |     /                                    /     
 |    /                                    /      
 |   /                                    /       
 |  /                                    /        
 | /                                    /         
 |/                                    /          
 *------------------------------------*           

Positions:
   0 H      8.141807    6.593254    6.006475    ( 0.0000,  0.0000,  0.0000)
   1 H      9.100465    8.175521    8.149771    ( 0.0000,  0.0000,  0.0000)
   2 H      8.413989    5.970926    7.646796    ( 0.0000,  0.0000,  0.0000)
   3 C      8.113156    6.870780    7.072980    ( 0.0000,  0.0000,  0.0000)
   4 O      9.082421    7.907100    7.204113    ( 0.0000,  0.0000,  0.0000)
   5 H      6.431630    8.210530    6.884069    ( 0.0000,  0.0000,  0.0000)
   6 H      5.972635    6.546399    7.357476    ( 0.0000,  0.0000,  0.0000)
   7 H      6.726072    7.630632    8.548883    ( 0.0000,  0.0000,  0.0000)
   8 C      6.729834    7.336831    7.484423    ( 0.0000,  0.0000,  0.0000)

Unit cell:
           periodic     x           y           z      points  spacing
  1. axis:    no    15.078000    0.000000    0.000000    70     0.2154
  2. axis:    no     0.000000   14.217100    0.000000    70     0.2031
  3. axis:    no     0.000000    0.000000   14.532100    70     0.2076

  Lengths:  15.078000  14.217100  14.532100
  Angles:   90.000000  90.000000  90.000000

Effective grid spacing dv^(1/3) = 0.2086

                     log10-error:    total        iterations:
           time      wfs    density  energy       poisson
iter:   1  14:03:49  -3.86          -44.943331           
iter:   2  14:03:53  -5.26  -3.04   -44.943316           
iter:   3  14:03:56  -4.68  -3.05   -44.943220           
iter:   4  14:04:00  -6.43  -3.41   -44.943219           
iter:   5  14:04:03  -5.79  -3.41   -44.943220           
iter:   6  14:04:07  -5.72  -3.49   -44.943211           
iter:   7  14:04:10  -7.26  -4.01   -44.943211           
iter:   8  14:04:14  -7.18  -4.15   -44.943211           
iter:   9  14:04:17  -7.50  -4.43   -44.943211           

Converged after 9 iterations.

Dipole moment: (-0.208314, -0.120886, 0.233956) |e|*Ang

Energy contributions relative to reference atoms: (reference = -4171.049506)

Kinetic:        +34.087046
Potential:      -37.832690
External:        +0.000000
XC:             -41.101561
Entropy (-ST):   +0.000000
Local:           -0.096006
--------------------------
Free energy:    -44.943211
Extrapolated:   -44.943211

 Band  Eigenvalues  Occupancy
    0    -25.53756    2.00000
    1    -18.37559    2.00000
    2    -15.23290    2.00000
    3    -12.19717    2.00000
    4    -10.93433    2.00000
    5    -10.42437    2.00000
    6     -9.08401    2.00000
    7     -8.79753    2.00000
    8     -7.64277    2.00000
    9     -6.12386    2.00000
   10     -0.63263    0.00000
   11     -0.04393    0.00000
   12      0.19512    0.00000
   13      0.20075    0.00000
   14      0.35077    0.00000
   15      0.51037    0.00000

Fermi level: -3.37825

Gap: 5.491 eV
Transition (v -> c):
  (s=0, k=0, n=9, [0.00, 0.00, 0.00]) -> (s=0, k=0, n=10, [0.00, 0.00, 0.00])

Forces in eV/Ang:
  0 H    -0.05786   -0.00677   -0.02170
  1 H     0.00135    0.01283    0.03718
  2 H    -0.00489   -0.00320    0.03203
  3 C     0.02358    0.00547   -0.01051
  4 O     0.02263    0.03756    0.04390
  5 H    -0.04339    0.01246    0.01618
  6 H    -0.00967   -0.04816   -0.02757
  7 H    -0.03368    0.01216    0.00194
  8 C    -0.03506   -0.00670    0.00430

System changes: positions 

Initializing position-dependent things.

Density initialized from wave functions
          .------------------------------------.  
         /|                                    |  
        / |                                    |  
       /  |                                    |  
      /   |                                    |  
     /    |                                    |  
    /     |                                    |  
   /      |                                    |  
  /       |                                    |  
 *        |                                    |  
 |        |                                    |  
 |        |                                    |  
 |        |           H      H                 |  
 |        |           C     O                  |  
 |        |         H    H                     |  
 |        |              H                     |  
 |        |                                    |  
 |        |                                    |  
 |        .------------------------------------.  
 |       /                                    /   
 |      /                                    /    
 |     /                                    /     
 |    /                                    /      
 |   /                                    /       
 |  /                                    /        
 | /                                    /         
 |/                                    /          
 *------------------------------------*           

Positions:
   0 H      8.140503    6.593859    6.005241    ( 0.0000,  0.0000,  0.0000)
   1 H      9.102079    8.177852    8.151699    ( 0.0000,  0.0000,  0.0000)
   2 H      8.413137    5.971183    7.647762    ( 0.0000,  0.0000,  0.0000)
   3 C      8.112082    6.871004    7.073063    ( 0.0000,  0.0000,  0.0000)
   4 O      9.082493    7.907163    7.206337    ( 0.0000,  0.0000,  0.0000)
   5 H      6.429392    8.209505    6.885558    ( 0.0000,  0.0000,  0.0000)
   6 H      5.972510    6.545526    7.356876    ( 0.0000,  0.0000,  0.0000)
   7 H      6.723076    7.630491    8.548149    ( 0.0000,  0.0000,  0.0000)
   8 C      6.728870    7.336060    7.484448    ( 0.0000,  0.0000,  0.0000)

Unit cell:
           periodic     x           y           z      points  spacing
  1. axis:    no    15.078000    0.000000    0.000000    70     0.2154
  2. axis:    no     0.000000   14.217100    0.000000    70     0.2031
  3. axis:    no     0.000000    0.000000   14.532100    70     0.2076

  Lengths:  15.078000  14.217100  14.532100
  Angles:   90.000000  90.000000  90.000000

Effective grid spacing dv^(1/3) = 0.2086

                     log10-error:    total        iterations:
           time      wfs    density  energy       poisson
iter:   1  14:04:23  -3.97          -44.943769           
iter:   2  14:04:26  -5.39  -3.08   -44.943760           
iter:   3  14:04:30  -4.98  -3.09   -44.943690           
iter:   4  14:04:33  -5.89  -3.44   -44.943689           
iter:   5  14:04:37  -5.13  -3.50   -44.943715           
iter:   6  14:04:40  -5.28  -3.37   -44.943684           
iter:   7  14:04:44  -6.76  -4.09   -44.943684           
iter:   8  14:04:47  -7.31  -4.08   -44.943684           
iter:   9  14:04:51  -6.96  -4.08   -44.943685           
iter:  10  14:04:54  -8.41  -4.18   -44.943685           

Converged after 10 iterations.

Dipole moment: (-0.208966, -0.120343, 0.233987) |e|*Ang

Energy contributions relative to reference atoms: (reference = -4171.049506)

Kinetic:        +34.026403
Potential:      -37.785025
External:        +0.000000
XC:             -41.087910
Entropy (-ST):   +0.000000
Local:           -0.097153
--------------------------
Free energy:    -44.943685
Extrapolated:   -44.943685

 Band  Eigenvalues  Occupancy
    0    -25.52321    2.00000
    1    -18.37957    2.00000
    2    -15.23232    2.00000
    3    -12.19207    2.00000
    4    -10.93502    2.00000
    5    -10.42340    2.00000
    6     -9.08501    2.00000
    7     -8.79395    2.00000
    8     -7.63694    2.00000
    9     -6.12125    2.00000
   10     -0.63244    0.00000
   11     -0.04537    0.00000
   12      0.19475    0.00000
   13      0.20083    0.00000
   14      0.35062    0.00000
   15      0.51025    0.00000

Fermi level: -3.37685

Gap: 5.489 eV
Transition (v -> c):
  (s=0, k=0, n=9, [0.00, 0.00, 0.00]) -> (s=0, k=0, n=10, [0.00, 0.00, 0.00])

Forces in eV/Ang:
  0 H    -0.04934    0.00600    0.01772
  1 H    -0.01560   -0.00935    0.02153
  2 H    -0.01178    0.00459    0.01502
  3 C     0.05335    0.00777   -0.00002
  4 O     0.01143    0.03489    0.02600
  5 H    -0.04566    0.02837   -0.00416
  6 H    -0.01878   -0.05982   -0.02937
  7 H    -0.02548    0.00885    0.02213
  8 C    -0.03831   -0.00388    0.00408

System changes: positions 

Initializing position-dependent things.

Density initialized from wave functions
          .------------------------------------.  
         /|                                    |  
        / |                                    |  
       /  |                                    |  
      /   |                                    |  
     /    |                                    |  
    /     |                                    |  
   /      |                                    |  
  /       |                                    |  
 *        |                                    |  
 |        |                                    |  
 |        |                                    |  
 |        |           H      H                 |  
 |        |           C     O                  |  
 |        |         H    H                     |  
 |        |              H                     |  
 |        |                                    |  
 |        |                                    |  
 |        .------------------------------------.  
 |       /                                    /   
 |      /                                    /    
 |     /                                    /     
 |    /                                    /      
 |   /                                    /       
 |  /                                    /        
 | /                                    /         
 |/                                    /          
 *------------------------------------*           

Positions:
   0 H      8.138247    6.595030    6.004175    ( 0.0000,  0.0000,  0.0000)
   1 H      9.103922    8.180738    8.154547    ( 0.0000,  0.0000,  0.0000)
   2 H      8.411644    5.971307    7.649206    ( 0.0000,  0.0000,  0.0000)
   3 C      8.111547    6.871642    7.073499    ( 0.0000,  0.0000,  0.0000)
   4 O      9.082939    7.907982    7.209367    ( 0.0000,  0.0000,  0.0000)
   5 H      6.425547    8.208708    6.887194    ( 0.0000,  0.0000,  0.0000)
   6 H      5.971724    6.543156    7.355621    ( 0.0000,  0.0000,  0.0000)
   7 H      6.718570    7.630312    8.547853    ( 0.0000,  0.0000,  0.0000)
   8 C      6.726811    7.335001    7.484549    ( 0.0000,  0.0000,  0.0000)

Unit cell:
           periodic     x           y           z      points  spacing
  1. axis:    no    15.078000    0.000000    0.000000    70     0.2154
  2. axis:    no     0.000000   14.217100    0.000000    70     0.2031
  3. axis:    no     0.000000    0.000000   14.532100    70     0.2076

  Lengths:  15.078000  14.217100  14.532100
  Angles:   90.000000  90.000000  90.000000

Effective grid spacing dv^(1/3) = 0.2086

                     log10-error:    total        iterations:
           time      wfs    density  energy       poisson
iter:   1  14:05:00  -3.71          -44.944378           
iter:   2  14:05:03  -5.16  -2.96   -44.944369           
iter:   3  14:05:07  -5.02  -2.97   -44.944278           
iter:   4  14:05:10  -5.35  -3.29   -44.944275           
iter:   5  14:05:14  -5.55  -3.46   -44.944272           
iter:   6  14:05:17  -5.95  -3.64   -44.944268           
iter:   7  14:05:21  -6.91  -4.01   -44.944268           
iter:   8  14:05:24  -6.80  -4.00   -44.944267           
iter:   9  14:05:27  -8.47  -4.65   -44.944267           

Converged after 9 iterations.

Dipole moment: (-0.209073, -0.119703, 0.233861) |e|*Ang

Energy contributions relative to reference atoms: (reference = -4171.049506)

Kinetic:        +33.812357
Potential:      -37.622444
External:        +0.000000
XC:             -41.036618
Entropy (-ST):   +0.000000
Local:           -0.097562
--------------------------
Free energy:    -44.944267
Extrapolated:   -44.944267

 Band  Eigenvalues  Occupancy
    0    -25.51034    2.00000
    1    -18.37728    2.00000
    2    -15.22997    2.00000
    3    -12.18746    2.00000
    4    -10.93428    2.00000
    5    -10.41705    2.00000
    6     -9.08312    2.00000
    7     -8.79067    2.00000
    8     -7.63281    2.00000
    9     -6.12168    2.00000
   10     -0.63303    0.00000
   11     -0.04747    0.00000
   12      0.19410    0.00000
   13      0.20069    0.00000
   14      0.35036    0.00000
   15      0.51008    0.00000

Fermi level: -3.37736

Gap: 5.489 eV
Transition (v -> c):
  (s=0, k=0, n=9, [0.00, 0.00, 0.00]) -> (s=0, k=0, n=10, [0.00, 0.00, 0.00])

Forces in eV/Ang:
  0 H    -0.03131    0.02073    0.06032
  1 H    -0.03349   -0.03295    0.00417
  2 H    -0.01403    0.01904   -0.00586
  3 C     0.04882    0.01325    0.01707
  4 O    -0.00552    0.02206    0.01440
  5 H    -0.04293    0.02811   -0.01699
  6 H    -0.01248   -0.05439   -0.02755
  7 H    -0.01911   -0.00105    0.02891
  8 C    -0.03182   -0.00044    0.00222

System changes: positions 

Initializing position-dependent things.

Density initialized from wave functions
          .------------------------------------.  
         /|                                    |  
        / |                                    |  
       /  |                                    |  
      /   |                                    |  
     /    |                                    |  
    /     |                                    |  
   /      |                                    |  
  /       |                                    |  
 *        |                                    |  
 |        |                                    |  
 |        |                                    |  
 |        |           H      H                 |  
 |        |           C     O                  |  
 |        |         H    H                     |  
 |        |              H                     |  
 |        |                                    |  
 |        |                                    |  
 |        .------------------------------------.  
 |       /                                    /   
 |      /                                    /    
 |     /                                    /     
 |    /                                    /      
 |   /                                    /       
 |  /                                    /        
 | /                                    /         
 |/                                    /          
 *------------------------------------*           

Positions:
   0 H      8.135503    6.597320    6.004193    ( 0.0000,  0.0000,  0.0000)
   1 H      9.105844    8.183955    8.158004    ( 0.0000,  0.0000,  0.0000)
   2 H      8.409255    5.971445    7.650753    ( 0.0000,  0.0000,  0.0000)
   3 C      8.111320    6.872875    7.074743    ( 0.0000,  0.0000,  0.0000)
   4 O      9.083509    7.909388    7.213253    ( 0.0000,  0.0000,  0.0000)
   5 H      6.419859    8.207992    6.888745    ( 0.0000,  0.0000,  0.0000)
   6 H      5.970265    6.539279    7.353741    ( 0.0000,  0.0000,  0.0000)
   7 H      6.712256    7.629749    8.548158    ( 0.0000,  0.0000,  0.0000)
   8 C      6.723539    7.333676    7.484753    ( 0.0000,  0.0000,  0.0000)

Unit cell:
           periodic     x           y           z      points  spacing
  1. axis:    no    15.078000    0.000000    0.000000    70     0.2154
  2. axis:    no     0.000000   14.217100    0.000000    70     0.2031
  3. axis:    no     0.000000    0.000000   14.532100    70     0.2076

  Lengths:  15.078000  14.217100  14.532100
  Angles:   90.000000  90.000000  90.000000

Effective grid spacing dv^(1/3) = 0.2086

                     log10-error:    total        iterations:
           time      wfs    density  energy       poisson
iter:   1  14:05:33  -3.46          -44.945002           
iter:   2  14:05:37  -4.91  -2.86   -44.944993           
iter:   3  14:05:40  -4.95  -2.87   -44.944876           
iter:   4  14:05:44  -5.05  -3.13   -44.944863           
iter:   5  14:05:47  -5.04  -3.35   -44.944868           
iter:   6  14:05:51  -5.42  -3.43   -44.944852           
iter:   7  14:05:54  -6.90  -3.89   -44.944853           
iter:   8  14:05:57  -6.32  -3.89   -44.944853           
iter:   9  14:06:01  -7.72  -4.10   -44.944852           

Converged after 9 iterations.

Dipole moment: (-0.208912, -0.119107, 0.233642) |e|*Ang

Energy contributions relative to reference atoms: (reference = -4171.049506)

Kinetic:        +33.529083
Potential:      -37.406312
External:        +0.000000
XC:             -40.969052
Entropy (-ST):   +0.000000
Local:           -0.098571
--------------------------
Free energy:    -44.944852
Extrapolated:   -44.944852

 Band  Eigenvalues  Occupancy
    0    -25.50098    2.00000
    1    -18.37011    2.00000
    2    -15.22741    2.00000
    3    -12.18429    2.00000
    4    -10.93189    2.00000
    5    -10.40658    2.00000
    6     -9.07895    2.00000
    7     -8.78780    2.00000
    8     -7.62934    2.00000
    9     -6.12428    2.00000
   10     -0.63363    0.00000
   11     -0.04937    0.00000
   12      0.19359    0.00000
   13      0.20035    0.00000
   14      0.35022    0.00000
   15      0.50983    0.00000

Fermi level: -3.37896

Gap: 5.491 eV
Transition (v -> c):
  (s=0, k=0, n=9, [0.00, 0.00, 0.00]) -> (s=0, k=0, n=10, [0.00, 0.00, 0.00])

Forces in eV/Ang:
  0 H    -0.00808    0.03208    0.09066
  1 H    -0.05000   -0.05128    0.00163
  2 H    -0.00884    0.03312   -0.02119
  3 C     0.01460    0.03077    0.03711
  4 O    -0.03164   -0.00217   -0.00642
  5 H    -0.03411    0.01282   -0.02053
  6 H     0.00876   -0.03431   -0.02321
  7 H    -0.01462   -0.01499    0.02153
  8 C    -0.01566    0.00628    0.00262

System changes: positions 

Initializing position-dependent things.

Density initialized from wave functions
          .------------------------------------.  
         /|                                    |  
        / |                                    |  
       /  |                                    |  
      /   |                                    |  
     /    |                                    |  
    /     |                                    |  
   /      |                                    |  
  /       |                                    |  
 *        |                                    |  
 |        |                                    |  
 |        |                                    |  
 |        |           H      H                 |  
 |        |           C     O                  |  
 |        |         H    H                     |  
 |        |              H                     |  
 |        |                                    |  
 |        |                                    |  
 |        .------------------------------------.  
 |       /                                    /   
 |      /                                    /    
 |     /                                    /     
 |    /                                    /      
 |   /                                    /       
 |  /                                    /        
 | /                                    /         
 |/                                    /          
 *------------------------------------*           

Positions:
   0 H      8.133027    6.600089    6.005788    ( 0.0000,  0.0000,  0.0000)
   1 H      9.106791    8.186072    8.161177    ( 0.0000,  0.0000,  0.0000)
   2 H      8.406871    5.971952    7.651846    ( 0.0000,  0.0000,  0.0000)
   3 C      8.111115    6.874672    7.076620    ( 0.0000,  0.0000,  0.0000)
   4 O      9.083560    7.910714    7.216695    ( 0.0000,  0.0000,  0.0000)
   5 H      6.414023    8.207448    6.889779    ( 0.0000,  0.0000,  0.0000)
   6 H      5.969035    6.535141    7.351655    ( 0.0000,  0.0000,  0.0000)
   7 H      6.706092    7.628860    8.548814    ( 0.0000,  0.0000,  0.0000)
   8 C      6.720204    7.332625    7.485047    ( 0.0000,  0.0000,  0.0000)

Unit cell:
           periodic     x           y           z      points  spacing
  1. axis:    no    15.078000    0.000000    0.000000    70     0.2154
  2. axis:    no     0.000000   14.217100    0.000000    70     0.2031
  3. axis:    no     0.000000    0.000000   14.532100    70     0.2076

  Lengths:  15.078000  14.217100  14.532100
  Angles:   90.000000  90.000000  90.000000

Effective grid spacing dv^(1/3) = 0.2086

                     log10-error:    total        iterations:
           time      wfs    density  energy       poisson
iter:   1  14:06:07  -3.48          -44.945551           
iter:   2  14:06:10  -4.92  -2.90   -44.945543           
iter:   3  14:06:14  -5.14  -2.90   -44.945453           
iter:   4  14:06:17  -4.90  -3.08   -44.945430           
iter:   5  14:06:21  -5.45  -3.32   -44.945419           
iter:   6  14:06:24  -6.45  -3.72   -44.945418           
iter:   7  14:06:27  -6.27  -3.86   -44.945421           
iter:   8  14:06:31  -6.03  -3.78   -44.945418           
iter:   9  14:06:34  -7.38  -4.28   -44.945418           
iter:  10  14:06:38  -6.94  -4.38   -44.945418           
iter:  11  14:06:41  -7.04  -4.24   -44.945418           
iter:  12  14:06:45  -8.03  -5.01   -44.945418           

Converged after 12 iterations.

Dipole moment: (-0.208347, -0.118729, 0.233506) |e|*Ang

Energy contributions relative to reference atoms: (reference = -4171.049506)

Kinetic:        +33.351691
Potential:      -37.273198
External:        +0.000000
XC:             -40.926420
Entropy (-ST):   +0.000000
Local:           -0.097491
--------------------------
Free energy:    -44.945418
Extrapolated:   -44.945418

 Band  Eigenvalues  Occupancy
    0    -25.49958    2.00000
    1    -18.36423    2.00000
    2    -15.22670    2.00000
    3    -12.18501    2.00000
    4    -10.93137    2.00000
    5    -10.39842    2.00000
    6     -9.07617    2.00000
    7     -8.78755    2.00000
    8     -7.62616    2.00000
    9     -6.12608    2.00000
   10     -0.63433    0.00000
   11     -0.05049    0.00000
   12      0.19329    0.00000
   13      0.20005    0.00000
   14      0.35021    0.00000
   15      0.50967    0.00000

Fermi level: -3.38020

Gap: 5.492 eV
Transition (v -> c):
  (s=0, k=0, n=9, [0.00, 0.00, 0.00]) -> (s=0, k=0, n=10, [0.00, 0.00, 0.00])

Forces in eV/Ang:
  0 H     0.01136    0.03446    0.08998
  1 H    -0.05798   -0.06023    0.00140
  2 H     0.00005    0.03828   -0.02255
  3 C    -0.03547    0.03438    0.04563
  4 O    -0.04106   -0.00792   -0.02173
  5 H    -0.02359   -0.00687   -0.01661
  6 H     0.03239   -0.00810   -0.01659
  7 H    -0.01455   -0.02510    0.01170
  8 C    -0.01573    0.01247    0.00518

System changes: positions 

Initializing position-dependent things.

Density initialized from wave functions
          .------------------------------------.  
         /|                                    |  
        / |                                    |  
       /  |                                    |  
      /   |                                    |  
     /    |                                    |  
    /     |                                    |  
   /      |                                    |  
  /       |                                    |  
 *        |                                    |  
 |        |                                    |  
 |        |                                    |  
 |        |           H      H                 |  
 |        |           C     O                  |  
 |        |         H    H                     |  
 |        |              H                     |  
 |        |                                    |  
 |        |                                    |  
 |        .------------------------------------.  
 |       /                                    /   
 |      /                                    /    
 |     /                                    /     
 |    /                                    /      
 |   /                                    /       
 |  /                                    /        
 | /                                    /         
 |/                                    /          
 *------------------------------------*           

Positions:
   0 H      8.129382    6.605392    6.010328    ( 0.0000,  0.0000,  0.0000)
   1 H      9.107008    8.188094    8.166205    ( 0.0000,  0.0000,  0.0000)
   2 H      8.402991    5.973404    7.653209    ( 0.0000,  0.0000,  0.0000)
   3 C      8.109919    6.878302    7.080637    ( 0.0000,  0.0000,  0.0000)
   4 O      9.082932    7.913003    7.221798    ( 0.0000,  0.0000,  0.0000)
   5 H      6.404034    8.206428    6.890982    ( 0.0000,  0.0000,  0.0000)
   6 H      5.967695    6.528217    7.347929    ( 0.0000,  0.0000,  0.0000)
   7 H      6.695737    7.626806    8.550257    ( 0.0000,  0.0000,  0.0000)
   8 C      6.714152    7.331290    7.485743    ( 0.0000,  0.0000,  0.0000)

Unit cell:
           periodic     x           y           z      points  spacing
  1. axis:    no    15.078000    0.000000    0.000000    70     0.2154
  2. axis:    no     0.000000   14.217100    0.000000    70     0.2031
  3. axis:    no     0.000000    0.000000   14.532100    70     0.2076

  Lengths:  15.078000  14.217100  14.532100
  Angles:   90.000000  90.000000  90.000000

Effective grid spacing dv^(1/3) = 0.2086

                     log10-error:    total        iterations:
           time      wfs    density  energy       poisson
iter:   1  14:06:51  -3.04          -44.946650           
iter:   2  14:06:54  -4.46  -2.70   -44.946648           
iter:   3  14:06:57  -5.16  -2.70   -44.946518           
iter:   4  14:07:01  -4.46  -2.79   -44.946390           
iter:   5  14:07:04  -5.99  -3.16   -44.946382           
iter:   6  14:07:08  -5.27  -3.28   -44.946375           
iter:   7  14:07:11  -6.19  -3.64   -44.946373           
iter:   8  14:07:15  -6.86  -3.78   -44.946372           
iter:   9  14:07:18  -6.78  -3.81   -44.946372           
iter:  10  14:07:22  -7.53  -4.24   -44.946372           

Converged after 10 iterations.

Dipole moment: (-0.207584, -0.118409, 0.233411) |e|*Ang

Energy contributions relative to reference atoms: (reference = -4171.049506)

Kinetic:        +33.192120
Potential:      -37.150954
External:        +0.000000
XC:             -40.888742
Entropy (-ST):   +0.000000
Local:           -0.098795
--------------------------
Free energy:    -44.946372
Extrapolated:   -44.946372

 Band  Eigenvalues  Occupancy
    0    -25.50497    2.00000
    1    -18.35647    2.00000
    2    -15.22615    2.00000
    3    -12.18787    2.00000
    4    -10.93058    2.00000
    5    -10.38726    2.00000
    6     -9.07432    2.00000
    7     -8.79010    2.00000
    8     -7.62301    2.00000
    9     -6.13096    2.00000
   10     -0.63538    0.00000
   11     -0.05130    0.00000
   12      0.19331    0.00000
   13      0.19988    0.00000
   14      0.35046    0.00000
   15      0.50950    0.00000

Fermi level: -3.38317

Gap: 5.496 eV
Transition (v -> c):
  (s=0, k=0, n=9, [0.00, 0.00, 0.00]) -> (s=0, k=0, n=10, [0.00, 0.00, 0.00])

Forces in eV/Ang:
  0 H     0.03216    0.02756    0.05761
  1 H    -0.06047   -0.06084    0.00803
  2 H     0.01265    0.03865   -0.01058
  3 C    -0.10391    0.03720    0.04768
  4 O    -0.05368   -0.00946   -0.02115
  5 H    -0.00610   -0.03684   -0.00549
  6 H     0.06193    0.02765   -0.00606
  7 H    -0.01898   -0.03603   -0.00451
  8 C     0.01060    0.02274    0.00920

System changes: positions 

Initializing position-dependent things.

Density initialized from wave functions
          .------------------------------------.  
         /|                                    |  
        / |                                    |  
       /  |                                    |  
      /   |                                    |  
     /    |                                    |  
    /     |                                    |  
   /      |                                    |  
  /       |                                    |  
 *        |                                    |  
 |        |                                    |  
 |        |                                    |  
 |        |           H      H                 |  
 |        |           C     O                  |  
 |        |         H    H                     |  
 |        |              H                     |  
 |        |                                    |  
 |        |                                    |  
 |        .------------------------------------.  
 |       /                                    /   
 |      /                                    /    
 |     /                                    /     
 |    /                                    /      
 |   /                                    /       
 |  /                                    /        
 | /                                    /         
 |/                                    /          
 *------------------------------------*           

Positions:
   0 H      8.125619    6.610619    6.016098    ( 0.0000,  0.0000,  0.0000)
   1 H      9.105263    8.188054    8.171305    ( 0.0000,  0.0000,  0.0000)
   2 H      8.399840    5.976131    7.654430    ( 0.0000,  0.0000,  0.0000)
   3 C      8.107362    6.882494    7.085183    ( 0.0000,  0.0000,  0.0000)
   4 O      9.081068    7.915277    7.226602    ( 0.0000,  0.0000,  0.0000)
   5 H      6.394260    8.205166    6.892050    ( 0.0000,  0.0000,  0.0000)
   6 H      5.967965    6.521697    7.343807    ( 0.0000,  0.0000,  0.0000)
   7 H      6.685828    7.624429    8.551581    ( 0.0000,  0.0000,  0.0000)
   8 C      6.708665    7.330574    7.486575    ( 0.0000,  0.0000,  0.0000)

Unit cell:
           periodic     x           y           z      points  spacing
  1. axis:    no    15.078000    0.000000    0.000000    70     0.2154
  2. axis:    no     0.000000   14.217100    0.000000    70     0.2031
  3. axis:    no     0.000000    0.000000   14.532100    70     0.2076

  Lengths:  15.078000  14.217100  14.532100
  Angles:   90.000000  90.000000  90.000000

Effective grid spacing dv^(1/3) = 0.2086

                     log10-error:    total        iterations:
           time      wfs    density  energy       poisson
iter:   1  14:07:27  -3.04          -44.947668           
iter:   2  14:07:31  -4.44  -2.70   -44.947683           
iter:   3  14:07:34  -5.51  -2.70   -44.947669           
iter:   4  14:07:38  -4.48  -2.71   -44.947481           
iter:   5  14:07:41  -5.15  -3.21   -44.947502           
iter:   6  14:07:45  -6.85  -3.28   -44.947493           
iter:   7  14:07:48  -5.14  -3.31   -44.947479           
iter:   8  14:07:52  -5.82  -3.62   -44.947476           
iter:   9  14:07:55  -6.61  -3.73   -44.947474           
iter:  10  14:07:59  -6.54  -3.91   -44.947475           
iter:  11  14:08:02  -6.83  -4.07   -44.947474           
iter:  12  14:08:06  -7.77  -4.51   -44.947474           

Converged after 12 iterations.

Dipole moment: (-0.206938, -0.118740, 0.233253) |e|*Ang

Energy contributions relative to reference atoms: (reference = -4171.049506)

Kinetic:        +33.254467
Potential:      -37.197837
External:        +0.000000
XC:             -40.904871
Entropy (-ST):   +0.000000
Local:           -0.099234
--------------------------
Free energy:    -44.947474
Extrapolated:   -44.947474

 Band  Eigenvalues  Occupancy
    0    -25.51536    2.00000
    1    -18.35793    2.00000
    2    -15.22583    2.00000
    3    -12.19231    2.00000
    4    -10.93393    2.00000
    5    -10.38161    2.00000
    6     -9.07845    2.00000
    7     -8.79414    2.00000
    8     -7.61996    2.00000
    9     -6.13475    2.00000
   10     -0.63600    0.00000
   11     -0.05085    0.00000
   12      0.19338    0.00000
   13      0.20018    0.00000
   14      0.35073    0.00000
   15      0.50949    0.00000

Fermi level: -3.38537

Gap: 5.499 eV
Transition (v -> c):
  (s=0, k=0, n=9, [0.00, 0.00, 0.00]) -> (s=0, k=0, n=10, [0.00, 0.00, 0.00])

Forces in eV/Ang:
  0 H     0.04357    0.01722    0.00722
  1 H    -0.05232   -0.04828    0.02268
  2 H     0.01681    0.02766    0.01313
  3 C    -0.13227    0.02572    0.02748
  4 O    -0.06503   -0.00041   -0.02334
  5 H     0.00641   -0.05464    0.00247
  6 H     0.07531    0.05733    0.00704
  7 H    -0.02844   -0.03974   -0.00782
  8 C    -0.00678    0.02074    0.01696

System changes: positions 

Initializing position-dependent things.

Density initialized from wave functions
          .------------------------------------.  
         /|                                    |  
        / |                                    |  
       /  |                                    |  
      /   |                                    |  
     /    |                                    |  
    /     |                                    |  
   /      |                                    |  
  /       |                                    |  
 *        |                                    |  
 |        |                                    |  
 |        |                                    |  
 |        |           H      H                 |  
 |        |           C     O                  |  
 |        |         H    H                     |  
 |        |              H                     |  
 |        |                                    |  
 |        |                                    |  
 |        .------------------------------------.  
 |       /                                    /   
 |      /                                    /    
 |     /                                    /     
 |    /                                    /      
 |   /                                    /       
 |  /                                    /        
 | /                                    /         
 |/                                    /          
 *------------------------------------*           

Positions:
   0 H      8.118844    6.622130    6.027687    ( 0.0000,  0.0000,  0.0000)
   1 H      9.101450    8.187980    8.182490    ( 0.0000,  0.0000,  0.0000)
   2 H      8.393113    5.982339    7.657406    ( 0.0000,  0.0000,  0.0000)
   3 C      8.099680    6.891258    7.094722    ( 0.0000,  0.0000,  0.0000)
   4 O      9.075478    7.919778    7.236752    ( 0.0000,  0.0000,  0.0000)
[...]
    3    -12.18269    2.00000
    4    -10.92777    2.00000
    5    -10.39772    2.00000
    6     -9.09603    2.00000
    7     -8.80074    2.00000
    8     -7.64568    2.00000
    9     -6.12685    2.00000
   10     -0.63653    0.00000
   11     -0.04668    0.00000
   12      0.19324    0.00000
   13      0.20010    0.00000
   14      0.34886    0.00000
   15      0.51053    0.00000

Fermi level: -3.38169

Gap: 5.490 eV
Transition (v -> c):
  (s=0, k=0, n=9, [0.00, 0.00, 0.00]) -> (s=0, k=0, n=10, [0.00, 0.00, 0.00])

Forces in eV/Ang:
  0 H    -0.00373   -0.00466    0.00033
  1 H    -0.00134    0.00128   -0.00123
  2 H    -0.00174    0.00504   -0.00357
  3 C    -0.00001   -0.00034   -0.00401
  4 O    -0.00009   -0.00176   -0.00825
  5 H     0.00008   -0.00267   -0.00237
  6 H    -0.00561   -0.00334   -0.00817
  7 H    -0.00484   -0.00272    0.00537
  8 C    -0.00037    0.00121   -0.00003

System changes: positions 

Initializing position-dependent things.

Density initialized from wave functions
          .------------------------------------.  
         /|                                    |  
        / |                                    |  
       /  |                                    |  
      /   |                                    |  
     /    |                                    |  
    /     |                                    |  
   /      |                                    |  
  /       |                                    |  
 *        |                                    |  
 |        |                                    |  
 |        |                                    |  
 |        |           H     H                  |  
 |        |           C     O                  |  
 |        |         H    H                     |  
 |        |              H                     |  
 |        |                                    |  
 |        |                                    |  
 |        .------------------------------------.  
 |       /                                    /   
 |      /                                    /    
 |     /                                    /     
 |    /                                    /      
 |   /                                    /       
 |  /                                    /        
 | /                                    /         
 |/                                    /          
 *------------------------------------*           

Positions:
   0 H      8.105488    6.628074    6.039115    ( 0.0000,  0.0000,  0.0000)
   1 H      9.022856    8.182759    8.224092    ( 0.0000,  0.0000,  0.0000)
   2 H      8.354672    5.977715    7.670443    ( 0.0000,  0.0000,  0.0000)
   3 C      8.072735    6.887078    7.108729    ( 0.0000,  0.0000,  0.0000)
   4 O      9.034811    7.924453    7.270781    ( 0.0000,  0.0000,  0.0000)
   5 H      6.345526    8.189444    6.907221    ( 0.0000,  0.0000,  0.0000)
   6 H      5.944245    6.490550    7.299608    ( 0.0000,  0.0000,  0.0000)
   7 H      6.598212    7.571106    8.567408    ( 0.0000,  0.0000,  0.0000)
   8 C      6.664214    7.311091    7.493013    ( 0.0000,  0.0000,  0.0000)

Unit cell:
           periodic     x           y           z      points  spacing
  1. axis:    no    15.078000    0.000000    0.000000    70     0.2154
  2. axis:    no     0.000000   14.217100    0.000000    70     0.2031
  3. axis:    no     0.000000    0.000000   14.532100    70     0.2076

  Lengths:  15.078000  14.217100  14.532100
  Angles:   90.000000  90.000000  90.000000

Effective grid spacing dv^(1/3) = 0.2086

                     log10-error:    total        iterations:
           time      wfs    density  energy       poisson
iter:   1  14:24:20  -2.49          -44.953136           
iter:   2  14:24:24  -3.92  -2.34   -44.953037           
iter:   3  14:24:27  -3.38  -2.35   -44.951852           
iter:   4  14:24:31  -5.21  -2.81   -44.951740           
iter:   5  14:24:34  -4.56  -2.80   -44.952110           
iter:   6  14:24:37  -4.12  -2.65   -44.951635           
iter:   7  14:24:41  -5.61  -3.36   -44.951656           
iter:   8  14:24:44  -5.25  -3.30   -44.951637           
iter:   9  14:24:48  -5.63  -3.77   -44.951639           
iter:  10  14:24:51  -6.48  -3.72   -44.951635           
iter:  11  14:24:55  -6.78  -3.83   -44.951637           
iter:  12  14:24:58  -6.29  -3.88   -44.951634           
iter:  13  14:25:02  -8.03  -4.40   -44.951634           

Converged after 13 iterations.

Dipole moment: (-0.215076, -0.124581, 0.228507) |e|*Ang

Energy contributions relative to reference atoms: (reference = -4171.049506)

Kinetic:        +33.505240
Potential:      -37.404049
External:        +0.000000
XC:             -40.948620
Entropy (-ST):   +0.000000
Local:           -0.104205
--------------------------
Free energy:    -44.951634
Extrapolated:   -44.951634

 Band  Eigenvalues  Occupancy
    0    -25.53381    2.00000
    1    -18.36783    2.00000
    2    -15.20412    2.00000
    3    -12.20589    2.00000
    4    -10.93253    2.00000
    5    -10.38929    2.00000
    6     -9.06896    2.00000
    7     -8.80793    2.00000
    8     -7.65676    2.00000
    9     -6.13326    2.00000
   10     -0.64210    0.00000
   11     -0.05126    0.00000
   12      0.19287    0.00000
   13      0.20046    0.00000
   14      0.34772    0.00000
   15      0.51098    0.00000

Fermi level: -3.38768

Gap: 5.491 eV
Transition (v -> c):
  (s=0, k=0, n=9, [0.00, 0.00, 0.00]) -> (s=0, k=0, n=10, [0.00, 0.00, 0.00])

Forces in eV/Ang:
  0 H     0.03749   -0.01839   -0.06700
  1 H     0.02838   -0.01875   -0.16407
  2 H     0.11344   -0.06799    0.07646
  3 C    -0.21918    0.05511   -0.06616
  4 O     0.07558    0.04225    0.21497
  5 H     0.01975   -0.01202    0.02701
  6 H     0.09571    0.11026    0.06038
  7 H     0.01255   -0.04221   -0.09576
  8 C    -0.15059   -0.05366   -0.00623

System changes: positions 

Initializing position-dependent things.

Density initialized from wave functions
          .------------------------------------.  
         /|                                    |  
        / |                                    |  
       /  |                                    |  
      /   |                                    |  
     /    |                                    |  
    /     |                                    |  
   /      |                                    |  
  /       |                                    |  
 *        |                                    |  
 |        |                                    |  
 |        |                                    |  
 |        |           H     H                  |  
 |        |           C     O                  |  
 |        |         H    H                     |  
 |        |              H                     |  
 |        |                                    |  
 |        |                                    |  
 |        .------------------------------------.  
 |       /                                    /   
 |      /                                    /    
 |     /                                    /     
 |    /                                    /      
 |   /                                    /       
 |  /                                    /        
 | /                                    /         
 |/                                    /          
 *------------------------------------*           

Positions:
   0 H      8.116938    6.629252    6.034413    ( 0.0000,  0.0000,  0.0000)
   1 H      9.038217    8.180265    8.221804    ( 0.0000,  0.0000,  0.0000)
   2 H      8.368635    5.981738    7.671832    ( 0.0000,  0.0000,  0.0000)
   3 C      8.074213    6.888831    7.105350    ( 0.0000,  0.0000,  0.0000)
   4 O      9.041041    7.925492    7.271164    ( 0.0000,  0.0000,  0.0000)
   5 H      6.349629    8.192738    6.905555    ( 0.0000,  0.0000,  0.0000)
   6 H      5.947225    6.498400    7.317499    ( 0.0000,  0.0000,  0.0000)
   7 H      6.615570    7.581685    8.562385    ( 0.0000,  0.0000,  0.0000)
   8 C      6.667908    7.315834    7.491758    ( 0.0000,  0.0000,  0.0000)

Unit cell:
           periodic     x           y           z      points  spacing
  1. axis:    no    15.078000    0.000000    0.000000    70     0.2154
  2. axis:    no     0.000000   14.217100    0.000000    70     0.2031
  3. axis:    no     0.000000    0.000000   14.532100    70     0.2076

  Lengths:  15.078000  14.217100  14.532100
  Angles:   90.000000  90.000000  90.000000

Effective grid spacing dv^(1/3) = 0.2086

                     log10-error:    total        iterations:
           time      wfs    density  energy       poisson
iter:   1  14:25:07  -2.57          -44.955647           
iter:   2  14:25:11  -4.00  -2.38   -44.955551           
iter:   3  14:25:14  -3.40  -2.39   -44.954602           
iter:   4  14:25:18  -5.19  -2.82   -44.954442           
iter:   5  14:25:21  -4.33  -2.82   -44.954994           
iter:   6  14:25:25  -4.03  -2.62   -44.954348           
iter:   7  14:25:28  -5.85  -3.37   -44.954355           
iter:   8  14:25:32  -5.51  -3.45   -44.954351           
iter:   9  14:25:35  -5.92  -3.85   -44.954352           
iter:  10  14:25:39  -6.22  -3.77   -44.954349           
iter:  11  14:25:42  -6.43  -3.94   -44.954350           
iter:  12  14:25:46  -6.84  -4.13   -44.954349           
iter:  13  14:25:49  -7.80  -4.48   -44.954349           

Converged after 13 iterations.

Dipole moment: (-0.215999, -0.126160, 0.229325) |e|*Ang

Energy contributions relative to reference atoms: (reference = -4171.049506)

Kinetic:        +33.634099
Potential:      -37.494120
External:        +0.000000
XC:             -40.989799
Entropy (-ST):   +0.000000
Local:           -0.104529
--------------------------
Free energy:    -44.954349
Extrapolated:   -44.954349

 Band  Eigenvalues  Occupancy
    0    -25.51270    2.00000
    1    -18.37832    2.00000
    2    -15.21710    2.00000
    3    -12.18435    2.00000
    4    -10.92851    2.00000
    5    -10.39706    2.00000
    6     -9.09361    2.00000
    7     -8.80151    2.00000
    8     -7.64615    2.00000
    9     -6.12719    2.00000
   10     -0.63685    0.00000
   11     -0.04705    0.00000
   12      0.19321    0.00000
   13      0.20018    0.00000
   14      0.34876    0.00000
   15      0.51057    0.00000

Fermi level: -3.38202

Gap: 5.490 eV
Transition (v -> c):
  (s=0, k=0, n=9, [0.00, 0.00, 0.00]) -> (s=0, k=0, n=10, [0.00, 0.00, 0.00])

Forces in eV/Ang:
  0 H     0.00046   -0.00551   -0.00523
  1 H     0.00088   -0.00132   -0.01317
  2 H     0.00814    0.00069    0.00231
  3 C    -0.01241    0.00495   -0.00573
  4 O     0.01029    0.00012    0.01029
  5 H     0.00018   -0.00228    0.00029
  6 H     0.00099    0.00494   -0.00109
  7 H    -0.00283   -0.00499   -0.00236
  8 C    -0.00917    0.00149    0.00019

System changes: positions 

Initializing position-dependent things.

Density initialized from wave functions
          .------------------------------------.  
         /|                                    |  
        / |                                    |  
       /  |                                    |  
      /   |                                    |  
     /    |                                    |  
    /     |                                    |  
   /      |                                    |  
  /       |                                    |  
 *        |                                    |  
 |        |                                    |  
 |        |                                    |  
 |        |           H     H                  |  
 |        |           C     O                  |  
 |        |         H    H                     |  
 |        |              H                     |  
 |        |                                    |  
 |        |                                    |  
 |        .------------------------------------.  
 |       /                                    /   
 |      /                                    /    
 |     /                                    /     
 |    /                                    /      
 |   /                                    /       
 |  /                                    /        
 | /                                    /         
 |/                                    /          
 *------------------------------------*           

Positions:
   0 H      8.117182    6.629194    6.034225    ( 0.0000,  0.0000,  0.0000)
   1 H      9.038835    8.180181    8.221575    ( 0.0000,  0.0000,  0.0000)
   2 H      8.369187    5.982037    7.671845    ( 0.0000,  0.0000,  0.0000)
   3 C      8.074175    6.888964    7.105198    ( 0.0000,  0.0000,  0.0000)
   4 O      9.041196    7.925557    7.271035    ( 0.0000,  0.0000,  0.0000)
   5 H      6.349735    8.192789    6.905446    ( 0.0000,  0.0000,  0.0000)
   6 H      5.947307    6.498592    7.317906    ( 0.0000,  0.0000,  0.0000)
   7 H      6.616031    7.581979    8.562280    ( 0.0000,  0.0000,  0.0000)
   8 C      6.667945    7.316014    7.491740    ( 0.0000,  0.0000,  0.0000)

Unit cell:
           periodic     x           y           z      points  spacing
  1. axis:    no    15.078000    0.000000    0.000000    70     0.2154
  2. axis:    no     0.000000   14.217100    0.000000    70     0.2031
  3. axis:    no     0.000000    0.000000   14.532100    70     0.2076

  Lengths:  15.078000  14.217100  14.532100
  Angles:   90.000000  90.000000  90.000000

Effective grid spacing dv^(1/3) = 0.2086

                     log10-error:    total        iterations:
           time      wfs    density  energy       poisson
iter:   1  14:25:55  -5.50          -44.954356           
iter:   2  14:25:58  -6.91  -3.87   -44.954356           
iter:   3  14:26:02  -6.49  -3.88   -44.954354           
iter:   4  14:26:05  -7.82  -4.31   -44.954354           

Converged after 4 iterations.

Dipole moment: (-0.215979, -0.126130, 0.229486) |e|*Ang

Energy contributions relative to reference atoms: (reference = -4171.049506)

Kinetic:        +33.642109
Potential:      -37.500683
External:        +0.000000
XC:             -40.991850
Entropy (-ST):   +0.000000
Local:           -0.103930
--------------------------
Free energy:    -44.954354
Extrapolated:   -44.954354

 Band  Eigenvalues  Occupancy
    0    -25.51199    2.00000
    1    -18.37858    2.00000
    2    -15.21728    2.00000
    3    -12.18340    2.00000
    4    -10.92835    2.00000
    5    -10.39702    2.00000
    6     -9.09444    2.00000
    7     -8.80151    2.00000
    8     -7.64533    2.00000
    9     -6.12666    2.00000
   10     -0.63670    0.00000
   11     -0.04690    0.00000
   12      0.19325    0.00000
   13      0.20020    0.00000
   14      0.34883    0.00000
   15      0.51055    0.00000

Fermi level: -3.38168

Gap: 5.490 eV
Transition (v -> c):
  (s=0, k=0, n=9, [0.00, 0.00, 0.00]) -> (s=0, k=0, n=10, [0.00, 0.00, 0.00])

Forces in eV/Ang:
  0 H    -0.00054   -0.00465   -0.00224
  1 H     0.00179   -0.00106   -0.00790
  2 H     0.00488    0.00299   -0.00041
  3 C    -0.00591    0.00004   -0.00467
  4 O     0.00736    0.00194    0.00005
  5 H    -0.00101   -0.00008   -0.00164
  6 H    -0.00101    0.00230   -0.00186
  7 H    -0.00296   -0.00391    0.00039
  8 C    -0.00299   -0.00486   -0.00095

Timing:                                      incl.     excl.
-------------------------------------------------------------------
Density initialized from wave functions:    28.637    28.636   1.7% ||
 Symmetrize density:                         0.001     0.001   0.0% |
Forces:                                     58.934    58.934   3.4% ||
Hamiltonian:                                58.286     0.869   0.1% |
 Atomic:                                     7.681     0.050   0.0% |
  XC Correction:                             7.631     7.631   0.4% |
 Calculate atomic Hamiltonians:              9.156     9.156   0.5% |
 Communicate:                                0.000     0.000   0.0% |
 Initialize Hamiltonian:                     0.000     0.000   0.0% |
 Poisson:                                    0.389     0.389   0.0% |
 XC 3D grid:                                40.190    40.190   2.3% ||
LCAO initialization:                         0.298     0.076   0.0% |
 LCAO eigensolver:                           0.016     0.001   0.0% |
  Calculate projections:                     0.000     0.000   0.0% |
  DenseAtomicCorrection:                     0.000     0.000   0.0% |
  Distribute overlap matrix:                 0.000     0.000   0.0% |
  Orbital Layouts:                           0.001     0.001   0.0% |
  Potential matrix:                          0.014     0.014   0.0% |
 LCAO to grid:                               0.179     0.179   0.0% |
 Set positions (LCAO WFS):                   0.027     0.004   0.0% |
  Basic WFS set positions:                   0.000     0.000   0.0% |
  Basis functions set positions:             0.000     0.000   0.0% |
  P tci:                                     0.016     0.016   0.0% |
  ST tci:                                    0.003     0.003   0.0% |
  mktci:                                     0.003     0.003   0.0% |
PWDescriptor:                                0.013     0.013   0.0% |
Redistribute:                                0.022     0.022   0.0% |
SCF-cycle:                                1542.033     0.246   0.0% |
 Davidson:                                 788.280    91.370   5.3% |-|
  Apply H:                                 155.211   154.228   8.9% |---|
   HMM T:                                    0.983     0.983   0.1% |
  Subspace diag:                           168.811     0.053   0.0% |
   calc_h_matrix:                          160.337     4.737   0.3% |
    Apply H:                               155.600   154.586   8.9% |---|
     HMM T:                                  1.014     1.014   0.1% |
   diagonalize:                              0.099     0.099   0.0% |
   rotate_psi:                               8.322     8.322   0.5% |
  calc. matrices:                          356.403    46.065   2.7% ||
   Apply H:                                310.338   308.356  17.8% |------|
    HMM T:                                   1.982     1.982   0.1% |
  diagonalize:                               0.349     0.349   0.0% |
  rotate_psi:                               16.136    16.136   0.9% |
 Density:                                  254.425     0.009   0.0% |
  Atomic density matrices:                   0.370     0.370   0.0% |
  Mix:                                     170.848   170.848   9.9% |---|
  Multipole moments:                         0.110     0.110   0.0% |
  Pseudo density:                           83.089    83.080   4.8% |-|
   Symmetrize density:                       0.008     0.008   0.0% |
 Hamiltonian:                              496.321     7.180   0.4% |
  Atomic:                                   65.390     0.414   0.0% |
   XC Correction:                           64.975    64.975   3.8% |-|
  Calculate atomic Hamiltonians:            77.387    77.387   4.5% |-|
  Communicate:                               0.003     0.003   0.0% |
  Poisson:                                   3.301     3.301   0.2% |
  XC 3D grid:                              343.060   343.060  19.8% |-------|
 Orthonormalize:                             2.761     0.006   0.0% |
  calc_s_matrix:                             0.409     0.409   0.0% |
  inverse-cholesky:                          0.013     0.013   0.0% |
  projections:                               2.043     2.043   0.1% |
  rotate_psi_s:                              0.291     0.291   0.0% |
Set symmetry:                                0.000     0.000   0.0% |
Other:                                      43.809    43.809   2.5% ||
-------------------------------------------------------------------
Total:                                              1732.032 100.0%

Date: Wed Jun 30 14:26:07 2021
