56
Lattice="19.7635 0.0 0.0 0.0 17.6107 0.0 0.0 0.0 15.0298" Properties=species:S:1:pos:R:3:forces:R:3:magmoms:R:1 energy=-337.5410820711707 dipole="-1.274286304747147 0.38298325685230244 -0.5449743938113466" magmom=0.0 free_energy=-337.5410820711707 pbc="F F F"
H       12.00831710       6.66117970       3.99585588       0.00478439       0.00071892      -0.02470277       0.00000000
H       14.48569609       6.93963032       4.15716741       0.02760148      -0.01554349      -0.02006463       0.00000000
H       10.68915956       6.10661556       6.03143633      -0.01309711      -0.00190839      -0.01759496       0.00000000
H       15.61792537       6.66094379       6.36893786      -0.00023459      -0.01473506       0.00494520       0.00000000
H        8.61602634      13.23386776       9.60741873      -0.01515495      -0.01728876      -0.01381007       0.00000000
H       10.42444951      11.61261523      10.14538410       0.00596146       0.01544863       0.01332661       0.00000000
H        6.37389314      10.14206431       7.63940711       0.01781849       0.01118751       0.01664648       0.00000000
H        6.30180417       8.08784981       7.55132605       0.02194261      -0.02599858      -0.01737916       0.00000000
H        7.01845952       4.16620742       5.43945517       0.01184116       0.00256656      -0.00127577       0.00000000
H        5.38086691       3.98235892       5.42839296      -0.00923905      -0.00649245      -0.01067264       0.00000000
H        6.26001318      13.61157946       8.94096035      -0.01030934      -0.01047054       0.00595292       0.00000000
H        6.58430971      13.28575781       7.22888477      -0.00567320       0.00370087       0.00039070       0.00000000
H        5.33054080      12.35788518       8.08090106      -0.00213481      -0.01940173      -0.01313556       0.00000000
H       12.00516247       4.96534409       9.18644184      -0.01573916       0.01297303       0.00170058       0.00000000
H       10.55071436       5.41824790       8.27582763       0.01985077      -0.00820792       0.00760044       0.00000000
H        5.81748737       6.18455143       4.02848850       0.01480487      -0.00311176       0.01831098       0.00000000
H        6.00515355       7.66292967       5.05481973       0.00026333       0.00890494      -0.02120639       0.00000000
H        4.44074983       6.82864900       7.47107836      -0.01632518       0.02198596       0.00440293       0.00000000
H        3.92816869       5.18240539       6.96439495       0.00313627      -0.03350669       0.01653495       0.00000000
H        7.15888178       5.54179777       8.05449324      -0.02222360      -0.03926328       0.00534206       0.00000000
H        8.10471791       5.93940750       6.62059226       0.01520255      -0.02959960       0.02359332       0.00000000
H       12.30535056       8.14732115      10.82218446       0.01167636       0.00976614       0.01087586       0.00000000
H       13.00638267       8.33796269       9.22444227       0.00927190      -0.00859874      -0.01565001       0.00000000
H       13.25140851       5.66984889      10.78076416       0.01090509       0.01470778       0.00507810       0.00000000
H       14.39818159       7.03028121      10.97146621      -0.02151147       0.00861094      -0.01094538       0.00000000
O       15.00274160       4.56028764       9.19670718      -0.01322286       0.03039869       0.02163522       0.00000000
O       15.86069043       6.91558712       8.81725096       0.00117409      -0.00891050       0.00192831       0.00000000
N        9.28662700       7.31311964       8.39384889       0.00659569      -0.04397579      -0.00295501       0.00000000
N       10.49318846       9.10676619       9.47943012       0.02620981       0.01780632       0.00650065       0.00000000
O        4.21716881       6.56556574       5.37614031       0.01125117      -0.03534382       0.00201092       0.00000000
C       10.35081599       7.84969127       9.06073173      -0.01107814      -0.00479402      -0.00165572       0.00000000
C       12.51799062       6.51977925       4.95287444      -0.02756296      -0.01075753       0.01251089       0.00000000
C       13.90229153       6.67115083       5.04137188       0.00807327       0.01100789       0.00458363       0.00000000
C       11.77737079       6.20253409       6.08977400      -0.00171506      -0.03036001       0.02853251       0.00000000
C       14.54027735       6.50775334       6.26905459      -0.01332132       0.01434412       0.03119361       0.00000000
C        8.52036487      12.18665024       9.29729009      -0.01195476       0.00257261      -0.01135842       0.00000000
C        7.36708909      11.78838303       8.57779904       0.00177827       0.01027034       0.00774912       0.00000000
C       12.39404316       6.01510013       7.33465531       0.01415970       0.00940951       0.02353928       0.00000000
C       13.78742041       6.17656894       7.40025935       0.01564913       0.00945158       0.03941484       0.00000000
C        9.52823143      11.29676224       9.60477473       0.01121721      -0.00421581       0.00210726       0.00000000
C        8.25847872       8.12470860       8.14825271      -0.00995243       0.00764359      -0.00543844       0.00000000
C        7.25931049      10.45297629       8.20881579      -0.01411561       0.02538822      -0.00312268       0.00000000
C        9.44154627       9.94063965       9.20854094       0.00380333       0.01820819      -0.01114292       0.00000000
C        8.26998937       9.51849051       8.51886382       0.00022646       0.00047658      -0.00599735       0.00000000
N        7.19354819       7.58176957       7.48378419      -0.04194752       0.01165736       0.02228180       0.00000000
N       11.37835792       6.96463819       9.38367589       0.00516003      -0.00017492       0.00029257       0.00000000
N        6.16746185       4.31855749       6.01761700      -0.00213721      -0.01242670      -0.00968003       0.00000000
C        6.32983248      12.80682047       8.19161029      -0.00634203      -0.00741795      -0.00122911       0.00000000
C       11.55330301       5.75703965       8.56686314       0.01747711       0.00156229      -0.02079486       0.00000000
C        5.62036623       6.62489273       5.02238102      -0.00646488       0.00646619      -0.00116290       0.00000000
C        4.54484861       6.05346738       6.68500657      -0.01302289      -0.01066177       0.01573276       0.00000000
C        7.16116672       6.17339383       7.14639631       0.00292062      -0.00307568       0.00807790       0.00000000
C       12.59254315       7.58281387       9.92200969       0.02265309       0.00981750       0.01386320       0.00000000
C        5.99797274       5.75069689       6.25526508       0.00477557       0.00868767      -0.01463678       0.00000000
C       13.65908578       6.56935468      10.29558853      -0.00181452       0.00356984      -0.01102659       0.00000000
S       14.73635126       5.97917097       8.93473964      -0.02006070       0.02075643       0.00120661       0.00000000
