
  ___ ___ ___ _ _ _  
 |   |   |_  | | | | 
 | | | | | . | | | | 
 |__ |  _|___|_____|  21.6.0
 |___|_|             

User:   hanguo02@comput119.ghddi.org
Date:   Mon Jul  5 10:19:42 2021
Arch:   x86_64
Pid:    5692
Python: 3.6.8
gpaw:   /home/hanguo02/.local/lib/python3.6/site-packages/gpaw
_gpaw:  /home/hanguo02/.local/lib/python3.6/site-packages/
        _gpaw.cpython-36m-x86_64-linux-gnu.so
ase:    /home/hanguo02/.local/lib/python3.6/site-packages/ase (version 3.22.0)
numpy:  /usr/lib64/python3.6/site-packages/numpy (version 1.16.2)
scipy:  /usr/lib64/python3.6/site-packages/scipy (version 1.2.1)
libxc:  4.2.0
units:  Angstrom and eV
cores: 32
OpenMP: False
OMP_NUM_THREADS: 1

Input parameters:
  mode: {ecut: 400.0,
         gammacentered: False,
         name: pw}
  xc: PBE

System changes: positions, numbers, cell, pbc, initial_charges, initial_magmoms 

Initialize ...

H-setup:
  name: Hydrogen
  id: d65de229564ff8ea4db303e23b6d1ecf
  Z: 1.0
  valence: 1
  core: 0
  charge: 0.0
  file: /home/hanguo02/Software/GPAW/gpaw-setups-0.9.20000/H.PBE.gz
  compensation charges: gauss, rc=0.15, lmax=2
  cutoffs: 0.85(filt), 0.53(core),
  valence states:
                energy  radius
    1s(1.00)    -6.494   0.476
    *s          20.717   0.476
    *p           0.000   0.476

  Using partial waves for H as LCAO basis

O-setup:
  name: Oxygen
  id: 32ecd46bf208036f09c70b0ec9a88b78
  Z: 8.0
  valence: 6
  core: 2
  charge: 0.0
  file: /home/hanguo02/Software/GPAW/gpaw-setups-0.9.20000/O.PBE.gz
  compensation charges: gauss, rc=0.21, lmax=2
  cutoffs: 1.17(filt), 0.83(core),
  valence states:
                energy  radius
    2s(2.00)   -23.961   0.688
    2p(4.00)    -9.029   0.598
    *s           3.251   0.688
    *p          18.182   0.598
    *d           0.000   0.619

  Using partial waves for O as LCAO basis

N-setup:
  name: Nitrogen
  id: f7500608b86eaa90eef8b1d9a670dc53
  Z: 7.0
  valence: 5
  core: 2
  charge: 0.0
  file: /home/hanguo02/Software/GPAW/gpaw-setups-0.9.20000/N.PBE.gz
  compensation charges: gauss, rc=0.18, lmax=2
  cutoffs: 1.11(filt), 0.96(core),
  valence states:
                energy  radius
    2s(2.00)   -18.583   0.603
    2p(3.00)    -7.089   0.529
    *s           8.629   0.603
    *p          20.123   0.529
    *d           0.000   0.577

  Using partial waves for N as LCAO basis

S-setup:
  name: Sulfur
  id: ca434db9faa07220b7a1d8cb6886b7a9
  Z: 16.0
  valence: 6
  core: 10
  charge: 0.0
  file: /home/hanguo02/Software/GPAW/gpaw-setups-0.9.20000/S.PBE.gz
  compensation charges: gauss, rc=0.24, lmax=2
  cutoffs: 1.77(filt), 1.66(core),
  valence states:
                energy  radius
    3s(2.00)   -17.254   0.974
    3p(4.00)    -7.008   0.979
    *s           9.957   0.974
    *p          20.203   0.979
    *d           0.000   0.900

  Using partial waves for S as LCAO basis

C-setup:
  name: Carbon
  id: 4aa54d4b901d75f77cc0ea3eec22967b
  Z: 6.0
  valence: 4
  core: 2
  charge: 0.0
  file: /home/hanguo02/Software/GPAW/gpaw-setups-0.9.20000/C.PBE.gz
  compensation charges: gauss, rc=0.20, lmax=2
  cutoffs: 1.14(filt), 1.14(core),
  valence states:
                energy  radius
    2s(2.00)   -13.751   0.635
    2p(2.00)    -5.284   0.635
    *s          13.461   0.635
    *p          21.927   0.635
    *d           0.000   0.635

  Using partial waves for C as LCAO basis

Reference energy: -66899.788441

Spin-paired calculation

Convergence criteria:
  Maximum total energy change: 0.0005 eV / electron
  Maximum integral of absolute density change: 0.0001 electrons
  Maximum integral of absolute eigenstate change: 4e-08 eV^2
  Maximum number of iterations: 333

Symmetries present (total): 1

  ( 1  0  0)
  ( 0  1  0)
  ( 0  0  1)

1 k-point (Gamma)
1 k-point in the irreducible part of the Brillouin zone
       k-points in crystal coordinates                weights
   0:     0.00000000    0.00000000    0.00000000          1/1

Wave functions: Plane wave expansion
  Cutoff energy: 400.000 eV
  Number of coefficients: 152917 (reduced to 76459)
  Pulay-stress correction: 0.000000 eV/Ang^3 (de/decut=0.000000)
  Using Numpy's FFT
  ScaLapack parameters: grid=1x1, blocksize=None
  Wavefunction extrapolation:
    Improved wavefunction reuse through dual PAW basis 

Occupation numbers: width=0.000 eV 

Eigensolver
   Davidson(niter=2) 

Densities:
  Coarse grid: 160*64*90 grid
  Fine grid: 320*128*180 grid
  Total Charge: 0.000000 

Density mixing:
  Method: separate
  Backend: pulay
  Linear mixing parameter: 0.05
  Mixing with 5 old densities
  Damping of long wave oscillations: 50 

Hamiltonian:
  XC and Coulomb potentials evaluated on a 320*128*180 grid
  Using the PBE Exchange-Correlation functional
 

XC parameters: PBE with 2 nearest neighbor stencil

Memory estimate:
  Process memory now: 419.62 MiB
  Calculator: 407.96 MiB
    Density: 18.18 MiB
      Arrays: 5.72 MiB
      Localized functions: 10.21 MiB
      Mixer: 2.25 MiB
    Hamiltonian: 4.05 MiB
      Arrays: 3.74 MiB
      XC: 0.00 MiB
      Poisson: 0.00 MiB
      vbar: 0.31 MiB
    Wavefunctions: 385.73 MiB
      Arrays psit_nG: 179.67 MiB
      Eigensolver: 187.31 MiB
      Projections: 0.03 MiB
      Projectors: 0.58 MiB
      PW-descriptor: 18.13 MiB

Total number of cores used: 32
Domain decomposition: 4 x 2 x 4

Number of atoms: 89
Number of atomic orbitals: 233
Number of bands in calculation: 154
Number of valence electrons: 250
Bands to converge: occupied

... initialized

Initializing position-dependent things.

Density initialized from atomic densities
Creating initial wave functions:
  154 bands from LCAO basis set

         .---------------------------------------------------------------------------------.  
        /|                                                                                 |  
       / |                                                                                 |  
      /  |                                                                                 |  
     /   |                                                                                 |  
    /    |                                                                                 |  
   /     |                                                                                 |  
  /      |                                                                                 |  
 *       |                                                                                 |  
 |       |                                                                                 |  
 |       |                HH   H                             H                             |  
 |       |                 CC                H     H     H                                 |  
 |       |            H C    H     H   H               C      C  N                         |  
 |       |            H H  C      N      C  C       C       C          H                   |  
 |       |      H   H         C        C      C   C      C       C   HC                    |  
 |       |       C  OCC H           C              C  C       N    C    H S H              |  
 |       |     H      C  H    N  C       C   C         H     H    H  N     C               |  
 |       |          H                   H     H  H                  C    C H H             |  
 |       |         H N            H                              O   HC  H                 |  
 |       |            C O                                              H                   |  
 |       |                                                                                 |  
 |       |          O                                                                      |  
 |       |           C  H                                                                  |  
 |       .----------H----------------------------------------------------------------------.  
 |      /                                                                                 /   
 |     /                                                                                 /    
 |    /                                                                                 /     
 |   /                                                                                 /      
 |  /                                                                                 /       
 | /                                                                                 /        
 |/                                                                                 /         
 *---------------------------------------------------------------------------------*          

Positions:
   0 H     11.952700    5.414600    8.219200    ( 0.0000,  0.0000,  0.0000)
   1 H     22.839300    6.942900   13.176200    ( 0.0000,  0.0000,  0.0000)
   2 H     16.414400    6.952100   12.416400    ( 0.0000,  0.0000,  0.0000)
   3 H     16.714100    6.668800    8.130900    ( 0.0000,  0.0000,  0.0000)
   4 H     18.451000    4.947600    9.252300    ( 0.0000,  0.0000,  0.0000)
   5 H     18.412100    8.561900   11.613700    ( 0.0000,  0.0000,  0.0000)
   6 H     13.985000    6.887100   12.264500    ( 0.0000,  0.0000,  0.0000)
   7 H     14.270900    6.594500    7.967800    ( 0.0000,  0.0000,  0.0000)
   8 H     20.862900    4.757200    9.575300    ( 0.0000,  0.0000,  0.0000)
   9 H     20.831400    8.363000   11.945300    ( 0.0000,  0.0000,  0.0000)
  10 H      6.217600    5.000600    8.149600    ( 0.0000,  0.0000,  0.0000)
  11 H     11.831600    7.761700   11.679200    ( 0.0000,  0.0000,  0.0000)
  12 H     23.220300    5.724300    9.188100    ( 0.0000,  0.0000,  0.0000)
  13 H      6.591400    4.402900    4.000000    ( 0.0000,  0.0000,  0.0000)
  14 H      6.734300    6.171400    4.127900    ( 0.0000,  0.0000,  0.0000)
  15 H      8.147600    5.115600    4.481300    ( 0.0000,  0.0000,  0.0000)
  16 H      7.084100    9.376900    8.499000    ( 0.0000,  0.0000,  0.0000)
  17 H      5.774500    8.628000    7.565300    ( 0.0000,  0.0000,  0.0000)
  18 H      5.401700    9.718900    8.901700    ( 0.0000,  0.0000,  0.0000)
  19 H      4.240000    6.866400    8.794800    ( 0.0000,  0.0000,  0.0000)
  20 H      4.623100    6.426000   10.476800    ( 0.0000,  0.0000,  0.0000)
  21 H      4.000000    8.031000   10.101400    ( 0.0000,  0.0000,  0.0000)
  22 H     26.810000    6.605500    6.202000    ( 0.0000,  0.0000,  0.0000)
  23 H     25.670800    7.942600    6.444500    ( 0.0000,  0.0000,  0.0000)
  24 H      8.470700    4.084500   12.154800    ( 0.0000,  0.0000,  0.0000)
  25 H      7.268200    5.100100   12.991900    ( 0.0000,  0.0000,  0.0000)
  26 H     10.298700    5.235500   13.114700    ( 0.0000,  0.0000,  0.0000)
  27 H      9.139700    5.583800   14.411800    ( 0.0000,  0.0000,  0.0000)
  28 H     28.041700    8.648300    6.928200    ( 0.0000,  0.0000,  0.0000)
  29 H     26.946600    8.842000    8.292000    ( 0.0000,  0.0000,  0.0000)
  30 H      6.404900    8.164400   10.527300    ( 0.0000,  0.0000,  0.0000)
  31 H      8.522100    7.696400   13.398100    ( 0.0000,  0.0000,  0.0000)
  32 H     10.277300    7.679600   13.191400    ( 0.0000,  0.0000,  0.0000)
  33 H     29.338800    7.108000    8.068200    ( 0.0000,  0.0000,  0.0000)
  34 H     28.544300    7.786400    9.486400    ( 0.0000,  0.0000,  0.0000)
  35 H     26.791600    4.000000   11.684400    ( 0.0000,  0.0000,  0.0000)
  36 H     26.968200    5.754800   11.894100    ( 0.0000,  0.0000,  0.0000)
  37 H      8.057400    7.123800    8.871100    ( 0.0000,  0.0000,  0.0000)
  38 H      8.650900    8.015900   11.016800    ( 0.0000,  0.0000,  0.0000)
  39 H     27.866300    5.232000    7.937200    ( 0.0000,  0.0000,  0.0000)
  40 H     25.501500    4.200100    9.673300    ( 0.0000,  0.0000,  0.0000)
  41 O      7.740500    7.079700    6.328400    ( 0.0000,  0.0000,  0.0000)
  42 O     24.403200    6.112400    7.747600    ( 0.0000,  0.0000,  0.0000)
  43 O      6.665200    4.586500   10.279400    ( 0.0000,  0.0000,  0.0000)
  44 N     10.340900    6.043300    9.472300    ( 0.0000,  0.0000,  0.0000)
  45 N     24.499400    6.194400   12.046800    ( 0.0000,  0.0000,  0.0000)
  46 O      6.650100    5.108900    5.919700    ( 0.0000,  0.0000,  0.0000)
  47 S     28.458300    4.986600   10.211800    ( 0.0000,  0.0000,  0.0000)
  48 C      7.073500    6.125000    6.705600    ( 0.0000,  0.0000,  0.0000)
  49 C     25.576100    6.421900    7.946700    ( 0.0000,  0.0000,  0.0000)
  50 C      7.303600    5.647600   10.270800    ( 0.0000,  0.0000,  0.0000)
  51 C     11.657500    5.966900    9.102400    ( 0.0000,  0.0000,  0.0000)
  52 C     23.191100    6.568600   12.222900    ( 0.0000,  0.0000,  0.0000)
  53 C     15.952900    6.904200   11.430500    ( 0.0000,  0.0000,  0.0000)
  54 C     16.122800    6.722800    9.044800    ( 0.0000,  0.0000,  0.0000)
  55 C     18.961500    5.721200    9.825400    ( 0.0000,  0.0000,  0.0000)
  56 C     18.937000    7.722900   11.157400    ( 0.0000,  0.0000,  0.0000)
  57 C     14.555500    6.868500   11.341800    ( 0.0000,  0.0000,  0.0000)
  58 C     14.723900    6.684200    8.951900    ( 0.0000,  0.0000,  0.0000)
  59 C     20.343800    5.610500   10.011800    ( 0.0000,  0.0000,  0.0000)
  60 C     20.319900    7.611000   11.349000    ( 0.0000,  0.0000,  0.0000)
  61 C     16.761900    6.819000   10.288100    ( 0.0000,  0.0000,  0.0000)
  62 C     18.229500    6.768700   10.409300    ( 0.0000,  0.0000,  0.0000)
  63 C     13.924100    6.745300   10.098700    ( 0.0000,  0.0000,  0.0000)
  64 C     21.034000    6.545100   10.792200    ( 0.0000,  0.0000,  0.0000)
  65 C     10.312300    6.746500   10.586600    ( 0.0000,  0.0000,  0.0000)
  66 C     24.588300    5.771800   10.799500    ( 0.0000,  0.0000,  0.0000)
  67 C     12.471600    6.620200   10.006400    ( 0.0000,  0.0000,  0.0000)
  68 C     22.450500    6.368200   11.077200    ( 0.0000,  0.0000,  0.0000)
  69 N      6.634900    5.908100    7.971900    ( 0.0000,  0.0000,  0.0000)
  70 N      8.126100    5.987300   11.324700    ( 0.0000,  0.0000,  0.0000)
  71 N     26.313700    6.012900    9.048400    ( 0.0000,  0.0000,  0.0000)
  72 N     11.581800    7.172500   10.900300    ( 0.0000,  0.0000,  0.0000)
  73 N     23.368600    5.882900   10.176100    ( 0.0000,  0.0000,  0.0000)
  74 C      7.060800    5.219700    4.558300    ( 0.0000,  0.0000,  0.0000)
  75 C      6.085800    8.934500    8.569200    ( 0.0000,  0.0000,  0.0000)
  76 C      4.659700    7.235300    9.739400    ( 0.0000,  0.0000,  0.0000)
  77 C     26.365500    7.266800    6.952400    ( 0.0000,  0.0000,  0.0000)
  78 C      8.235900    5.105400   12.474500    ( 0.0000,  0.0000,  0.0000)
  79 C      9.333700    5.707900   13.341800    ( 0.0000,  0.0000,  0.0000)
  80 C     27.442700    8.093300    7.660100    ( 0.0000,  0.0000,  0.0000)
  81 C      6.089600    7.763200    9.555100    ( 0.0000,  0.0000,  0.0000)
  82 C      9.353000    7.170800   12.908700    ( 0.0000,  0.0000,  0.0000)
  83 C     28.361600    7.238900    8.552000    ( 0.0000,  0.0000,  0.0000)
  84 C     26.911000    4.950200   11.151000    ( 0.0000,  0.0000,  0.0000)
  85 C      7.097300    6.665700    9.126300    ( 0.0000,  0.0000,  0.0000)
  86 C      9.086900    7.090000   11.401400    ( 0.0000,  0.0000,  0.0000)
  87 C     27.734300    5.875300    8.819800    ( 0.0000,  0.0000,  0.0000)
  88 C     25.785800    5.163300   10.122600    ( 0.0000,  0.0000,  0.0000)

Unit cell:
           periodic     x           y           z      points  spacing
  1. axis:    no    33.338800    0.000000    0.000000   160     0.2084
  2. axis:    no     0.000000   13.718900    0.000000    64     0.2144
  3. axis:    no     0.000000    0.000000   18.411800    90     0.2046

  Lengths:  33.338800  13.718900  18.411800
  Angles:   90.000000  90.000000  90.000000

Effective grid spacing dv^(1/3) = 0.2091

                     log10-error:    total        iterations:
           time      wfs    density  energy       poisson
iter:   1  10:21:36                -580.071980           
iter:   2  10:23:00  -0.79  -0.72  -575.310281           
iter:   3  10:24:23  -0.69  -0.74  -545.629691           
iter:   4  10:25:48  -1.65  -1.05  -544.344413           
iter:   5  10:27:11  -1.43  -1.12  -543.108272           
iter:   6  10:28:35  -1.15  -1.46  -544.272539           
iter:   7  10:29:59  -2.12  -1.41  -542.205141           
iter:   8  10:31:23  -1.84  -1.65  -541.742731           
iter:   9  10:32:48  -2.89  -2.10  -541.642027           
iter:  10  10:34:12  -3.00  -2.22  -541.659334           
iter:  11  10:35:35  -3.02  -2.28  -541.629147           
iter:  12  10:36:58  -4.09  -2.59  -541.619202           
iter:  13  10:38:23  -4.83  -2.76  -541.619255           
iter:  14  10:39:47  -4.31  -2.83  -541.624841           
iter:  15  10:41:11  -4.20  -2.69  -541.619112           
iter:  16  10:42:35  -5.02  -3.15  -541.618988           
iter:  17  10:44:02  -4.95  -3.17  -541.618629           
iter:  18  10:45:26  -5.71  -3.37  -541.618573           
iter:  19  10:46:50  -6.72  -3.57  -541.618547           
iter:  20  10:48:13  -6.44  -3.60  -541.618528           
iter:  21  10:49:39  -5.91  -3.64  -541.618587           
iter:  22  10:51:06  -6.34  -3.65  -541.618534           
iter:  23  10:52:31  -6.14  -3.77  -541.618568           
iter:  24  10:53:55  -6.36  -3.73  -541.618542           
iter:  25  10:55:20  -7.42  -4.06  -541.618542           

Converged after 25 iterations.

Dipole moment: (1.001172, 0.526072, 0.543580) |e|*Ang

Energy contributions relative to reference atoms: (reference = -66899.788441)

Kinetic:       +430.464410
Potential:     -450.401318
External:        +0.000000
XC:            -521.224045
Entropy (-ST):   +0.000000
Local:           -0.457589
--------------------------
Free energy:   -541.618542
Extrapolated:  -541.618542

 Band  Eigenvalues  Occupancy
    0    -26.96783    2.00000
    1    -26.13250    2.00000
    2    -25.55236    2.00000
    3    -25.39775    2.00000
    4    -25.06883    2.00000
    5    -24.41272    2.00000
    6    -24.07287    2.00000
    7    -23.58405    2.00000
    8    -22.47838    2.00000
    9    -21.77648    2.00000
   10    -21.47815    2.00000
   11    -21.29584    2.00000
   12    -20.85303    2.00000
   13    -20.32599    2.00000
   14    -19.82419    2.00000
   15    -19.75338    2.00000
   16    -19.52736    2.00000
   17    -19.23293    2.00000
   18    -18.99952    2.00000
   19    -18.76961    2.00000
   20    -18.30585    2.00000
   21    -18.20603    2.00000
   22    -18.03785    2.00000
   23    -17.72205    2.00000
   24    -17.46395    2.00000
   25    -17.30661    2.00000
   26    -16.82834    2.00000
   27    -16.47262    2.00000
   28    -16.00416    2.00000
   29    -15.71712    2.00000
   30    -15.55708    2.00000
   31    -15.36423    2.00000
   32    -15.09882    2.00000
   33    -15.07100    2.00000
   34    -14.91417    2.00000
   35    -14.79848    2.00000
   36    -14.52145    2.00000
   37    -14.47275    2.00000
   38    -14.37064    2.00000
   39    -14.20185    2.00000
   40    -14.04814    2.00000
   41    -13.80515    2.00000
   42    -13.60174    2.00000
   43    -13.47243    2.00000
   44    -13.25506    2.00000
   45    -13.06818    2.00000
   46    -12.99645    2.00000
   47    -12.87639    2.00000
   48    -12.67696    2.00000
   49    -12.37801    2.00000
   50    -12.14989    2.00000
   51    -11.86732    2.00000
   52    -11.62159    2.00000
   53    -11.58473    2.00000
   54    -11.32837    2.00000
   55    -11.21419    2.00000
   56    -11.09549    2.00000
   57    -11.05262    2.00000
   58    -11.02019    2.00000
   59    -10.88159    2.00000
   60    -10.80893    2.00000
   61    -10.71419    2.00000
   62    -10.66698    2.00000
   63    -10.54163    2.00000
   64    -10.44254    2.00000
   65    -10.33718    2.00000
   66    -10.31888    2.00000
   67    -10.23458    2.00000
   68    -10.18036    2.00000
   69    -10.07994    2.00000
   70    -10.04255    2.00000
   71     -9.96680    2.00000
   72     -9.90274    2.00000
   73     -9.87687    2.00000
   74     -9.86584    2.00000
   75     -9.80871    2.00000
   76     -9.71572    2.00000
   77     -9.69041    2.00000
   78     -9.48196    2.00000
   79     -9.43856    2.00000
   80     -9.39893    2.00000
   81     -9.31589    2.00000
   82     -9.28703    2.00000
   83     -9.08846    2.00000
   84     -8.98679    2.00000
   85     -8.86939    2.00000
   86     -8.83158    2.00000
   87     -8.81017    2.00000
   88     -8.66068    2.00000
   89     -8.60705    2.00000
   90     -8.51801    2.00000
   91     -8.42714    2.00000
   92     -8.37855    2.00000
   93     -8.37006    2.00000
   94     -8.30483    2.00000
   95     -8.10760    2.00000
   96     -8.06693    2.00000
   97     -7.96737    2.00000
   98     -7.89947    2.00000
   99     -7.85075    2.00000
  100     -7.80615    2.00000
  101     -7.63305    2.00000
  102     -7.61296    2.00000
  103     -7.47283    2.00000
  104     -7.46960    2.00000
  105     -7.22501    2.00000
  106     -7.15907    2.00000
  107     -6.87437    2.00000
  108     -6.55548    2.00000
  109     -6.31830    2.00000
  110     -6.05337    2.00000
  111     -6.04528    2.00000
  112     -6.03653    2.00000
  113     -5.92509    2.00000
  114     -5.88041    2.00000
  115     -5.81233    2.00000
  116     -5.70528    2.00000
  117     -5.59695    2.00000
  118     -5.44726    2.00000
  119     -5.29324    2.00000
  120     -5.15989    2.00000
  121     -4.90814    2.00000
  122     -4.84400    2.00000
  123     -4.80027    2.00000
  124     -4.59006    2.00000
  125     -1.59913    0.00000
  126     -1.08053    0.00000
  127     -0.87535    0.00000
  128     -0.86428    0.00000
  129     -0.78583    0.00000
  130     -0.59951    0.00000
  131     -0.33117    0.00000
  132     -0.29298    0.00000
  133     -0.23699    0.00000
  134     -0.02697    0.00000
  135      0.07272    0.00000
  136      0.14941    0.00000
  137      0.18532    0.00000
  138      0.22020    0.00000
  139      0.26637    0.00000
  140      0.32564    0.00000
  141      0.39824    0.00000
  142      0.43282    0.00000
  143      0.46917    0.00000
  144      0.49434    0.00000
  145      0.54521    0.00000
  146      0.60212    0.00000
  147      0.63590    0.00000
  148      0.68509    0.00000
  149      0.81119    0.00000
  150      0.86703    0.00000
  151      0.93622    0.00000
  152      0.99318    0.00000
  153      1.06076    0.00000

Fermi level: -3.09459

Gap: 2.991 eV
Transition (v -> c):
  (s=0, k=0, n=124, [0.00, 0.00, 0.00]) -> (s=0, k=0, n=125, [0.00, 0.00, 0.00])

Forces in eV/Ang:
  0 H     0.08193   -0.15562   -0.14377
  1 H    -0.05573    0.03493    0.22533
  2 H     0.12425    0.02353    0.13215
  3 H     0.12148    0.01016   -0.10806
  4 H    -0.16506   -0.06494   -0.08153
  5 H    -0.14856    0.11027    0.01631
  6 H    -0.25126   -0.01769    0.24523
  7 H    -0.18634    0.04340   -0.17317
  8 H     0.13038   -0.09775   -0.01235
  9 H     0.18222    0.13189    0.07229
 10 H    -0.27766   -0.63303    0.42192
 11 H     0.27219    0.46228    0.69694
 12 H     0.03701   -0.11725   -1.02122
 13 H    -0.16766   -0.19527    0.13813
 14 H     0.07567    0.25204   -0.06936
 15 H     0.25327    0.13579   -0.06528
 16 H     0.24737    0.12180   -0.16608
 17 H     0.00977   -0.12302   -0.19223
 18 H    -0.24495    0.19894    0.15920
 19 H     0.01305   -0.08608   -0.13536
 20 H    -0.04540   -0.24428    0.08059
 21 H    -0.08291    0.23856    0.05196
 22 H     0.08288   -0.23695   -0.26501
 23 H    -0.27616   -0.10510   -0.17680
 24 H    -0.09439   -0.24296   -0.03025
 25 H    -0.19944   -0.20783    0.15028
 26 H     0.13611   -0.08021   -0.00215
 27 H    -0.02587   -0.03329    0.16686
 28 H     0.03709    0.11168   -0.15078
 29 H    -0.12871    0.11297    0.00052
 30 H     0.24036    0.00975    0.28325
 31 H    -0.10131    0.21118   -0.03497
 32 H     0.22664    0.22554   -0.02191
 33 H     0.15822   -0.15704   -0.00971
 34 H     0.03381   -0.17922    0.22555
 35 H     0.03205   -0.13289   -0.07165
 36 H    -0.40288    0.06393    0.02836
 37 H     0.18364    0.14172   -0.17095
 38 H    -0.23816    0.29910   -0.07573
 39 H     0.28064   -0.10472   -0.21585
 40 H    -0.09664   -0.32223    0.02717
 41 O     0.19257    0.32813   -0.26711
 42 O    -0.93765   -0.14992   -0.09450
 43 O    -0.06776   -0.39703    0.14927
 44 N    -0.34310   -0.69599   -0.49774
 45 N     0.31524    0.16814    0.91933
 46 O    -0.20463   -0.40440   -0.64605
 47 S     0.49065   -0.58780    0.21072
 48 C     0.18753    0.15249    0.67781
 49 C     1.01344   -0.10777   -0.03952
 50 C     0.24341    0.45970    0.12860
 51 C    -0.03123   -0.12639   -0.07439
 52 C     0.15960    0.13831    0.31559
 53 C    -0.45823    0.08233   -0.00827
 54 C    -0.65040   -0.17056    0.00037
 55 C     0.43198    0.09321    0.00066
 56 C     0.46804   -0.21576    0.16378
 57 C     0.85657    0.07050   -0.08572
 58 C     0.78286   -0.04474   -0.01964
 59 C    -0.67685    0.07358   -0.16204
 60 C    -0.71806    0.04278   -0.03537
 61 C    -0.09197    0.00194    0.00086
 62 C     0.17245   -0.00402    0.02975
 63 C    -0.48315    0.00206    0.06515
 64 C     0.29767   -0.08732    0.01822
 65 C     0.53291    0.71829    0.34569
 66 C    -0.72166   -0.05112   -0.87558
 67 C     0.24297    0.35350   -0.46972
 68 C     0.26840    0.20732   -0.15212
 69 N     0.31223    0.83676    0.15036
 70 N    -0.37369    0.30001   -0.68218
 71 N    -0.46892    0.32330   -0.06203
 72 N    -0.29687   -0.66237    0.06166
 73 N    -0.14244   -0.47807    1.02001
 74 C    -0.06059   -0.10255   -0.05215
 75 C     0.20488   -0.14533    0.15619
 76 C     0.26589   -0.07501    0.11461
 77 C     0.11627    0.27665    0.74140
 78 C    -0.09858   -0.25264    0.17447
 79 C     0.09039    0.03819   -0.17740
 80 C     0.06066   -0.05048   -0.00039
 81 C    -0.65035    0.22884   -0.30848
 82 C    -0.14546   -0.12248    0.11008
 83 C     0.10101    0.31032   -0.21628
 84 C    -0.05419    0.39264   -0.19955
 85 C    -0.18641   -0.48370    0.09419
 86 C     0.14670   -0.30237   -0.23745
 87 C     0.51650    0.44647   -0.44497
 88 C    -0.29367    0.22641    0.43742

System changes: positions 

Initializing position-dependent things.

Density initialized from wave functions
         .---------------------------------------------------------------------------------.  
        /|                                                                                 |  
       / |                                                                                 |  
      /  |                                                                                 |  
     /   |                                                                                 |  
    /    |                                                                                 |  
   /     |                                                                                 |  
  /      |                                                                                 |  
 *       |                                                                                 |  
 |       |                                                                                 |  
 |       |                HH   H                             H                             |  
 |       |                 CC                H     H     H                                 |  
 |       |            H C    H     H   H               C      C  N                         |  
 |       |            H H  C      N      C  C       C       C          H                   |  
 |       |      H   H         C        C      C   C      C       C   HC                    |  
 |       |       C  OCC H           C              C  C       N    C    H S H              |  
 |       |     H      C  H    N  C       C   C         H     H    H  N     C               |  
 |       |          H                   H     H  H                  C    C H H             |  
 |       |         H N            H                              O   HC  H                 |  
 |       |            C O                                              H                   |  
 |       |                                                                                 |  
 |       |          O                                                                      |  
 |       |           C  H                                                                  |  
 |       .----------H----------------------------------------------------------------------.  
 |      /                                                                                 /   
 |     /                                                                                 /    
 |    /                                                                                 /     
 |   /                                                                                 /      
 |  /                                                                                 /       
 | /                                                                                 /        
 |/                                                                                 /         
 *---------------------------------------------------------------------------------*          

Positions:
   0 H     11.953870    5.412377    8.217146    ( 0.0000,  0.0000,  0.0000)
   1 H     22.838504    6.943399   13.179419    ( 0.0000,  0.0000,  0.0000)
   2 H     16.416175    6.952436   12.418288    ( 0.0000,  0.0000,  0.0000)
   3 H     16.715835    6.668945    8.129356    ( 0.0000,  0.0000,  0.0000)
   4 H     18.448642    4.946672    9.251135    ( 0.0000,  0.0000,  0.0000)
   5 H     18.409978    8.563475   11.613933    ( 0.0000,  0.0000,  0.0000)
   6 H     13.981411    6.886847   12.268003    ( 0.0000,  0.0000,  0.0000)
   7 H     14.268238    6.595120    7.965326    ( 0.0000,  0.0000,  0.0000)
   8 H     20.864763    4.755804    9.575124    ( 0.0000,  0.0000,  0.0000)
   9 H     20.834003    8.364884   11.946333    ( 0.0000,  0.0000,  0.0000)
  10 H      6.213633    4.991557    8.155627    ( 0.0000,  0.0000,  0.0000)
  11 H     11.835488    7.768304   11.689156    ( 0.0000,  0.0000,  0.0000)
  12 H     23.220829    5.722625    9.173511    ( 0.0000,  0.0000,  0.0000)
  13 H      6.589005    4.400110    4.001973    ( 0.0000,  0.0000,  0.0000)
  14 H      6.735381    6.175001    4.126909    ( 0.0000,  0.0000,  0.0000)
  15 H      8.151218    5.117540    4.480367    ( 0.0000,  0.0000,  0.0000)
  16 H      7.087634    9.378640    8.496627    ( 0.0000,  0.0000,  0.0000)
  17 H      5.774640    8.626243    7.562554    ( 0.0000,  0.0000,  0.0000)
  18 H      5.398201    9.721742    8.903974    ( 0.0000,  0.0000,  0.0000)
  19 H      4.240186    6.865170    8.792866    ( 0.0000,  0.0000,  0.0000)
  20 H      4.622451    6.422510   10.477951    ( 0.0000,  0.0000,  0.0000)
  21 H      3.998816    8.034408   10.102142    ( 0.0000,  0.0000,  0.0000)
  22 H     26.811184    6.602115    6.198214    ( 0.0000,  0.0000,  0.0000)
  23 H     25.666855    7.941099    6.441974    ( 0.0000,  0.0000,  0.0000)
  24 H      8.469352    4.081029   12.154368    ( 0.0000,  0.0000,  0.0000)
  25 H      7.265351    5.097131   12.994047    ( 0.0000,  0.0000,  0.0000)
  26 H     10.300644    5.234354   13.114669    ( 0.0000,  0.0000,  0.0000)
  27 H      9.139330    5.583324   14.414184    ( 0.0000,  0.0000,  0.0000)
  28 H     28.042230    8.649895    6.926046    ( 0.0000,  0.0000,  0.0000)
  29 H     26.944761    8.843614    8.292007    ( 0.0000,  0.0000,  0.0000)
  30 H      6.408334    8.164539   10.531346    ( 0.0000,  0.0000,  0.0000)
  31 H      8.520653    7.699417   13.397600    ( 0.0000,  0.0000,  0.0000)
  32 H     10.280538    7.682822   13.191087    ( 0.0000,  0.0000,  0.0000)
  33 H     29.341060    7.105757    8.068061    ( 0.0000,  0.0000,  0.0000)
  34 H     28.544783    7.783840    9.489622    ( 0.0000,  0.0000,  0.0000)
  35 H     26.792058    3.998102   11.683376    ( 0.0000,  0.0000,  0.0000)
  36 H     26.962445    5.755713   11.894505    ( 0.0000,  0.0000,  0.0000)
  37 H      8.060023    7.125825    8.868658    ( 0.0000,  0.0000,  0.0000)
  38 H      8.647498    8.020173   11.015718    ( 0.0000,  0.0000,  0.0000)
  39 H     27.870309    5.230504    7.934116    ( 0.0000,  0.0000,  0.0000)
  40 H     25.500119    4.195497    9.673688    ( 0.0000,  0.0000,  0.0000)
  41 O      7.743251    7.084388    6.324584    ( 0.0000,  0.0000,  0.0000)
  42 O     24.389805    6.110258    7.746250    ( 0.0000,  0.0000,  0.0000)
  43 O      6.664232    4.580828   10.281532    ( 0.0000,  0.0000,  0.0000)
  44 N     10.335999    6.033357    9.465189    ( 0.0000,  0.0000,  0.0000)
  45 N     24.503903    6.196802   12.059933    ( 0.0000,  0.0000,  0.0000)
  46 O      6.647177    5.103123    5.910471    ( 0.0000,  0.0000,  0.0000)
  47 S     28.465309    4.978203   10.214810    ( 0.0000,  0.0000,  0.0000)
  48 C      7.076179    6.127178    6.715283    ( 0.0000,  0.0000,  0.0000)
  49 C     25.590578    6.420360    7.946135    ( 0.0000,  0.0000,  0.0000)
  50 C      7.307077    5.654167   10.272637    ( 0.0000,  0.0000,  0.0000)
  51 C     11.657054    5.965094    9.101337    ( 0.0000,  0.0000,  0.0000)
  52 C     23.193380    6.570576   12.227408    ( 0.0000,  0.0000,  0.0000)
  53 C     15.946354    6.905376   11.430382    ( 0.0000,  0.0000,  0.0000)
  54 C     16.113509    6.720363    9.044805    ( 0.0000,  0.0000,  0.0000)
  55 C     18.967671    5.722532    9.825409    ( 0.0000,  0.0000,  0.0000)
  56 C     18.943686    7.719818   11.159740    ( 0.0000,  0.0000,  0.0000)
  57 C     14.567737    6.869507   11.340575    ( 0.0000,  0.0000,  0.0000)
  58 C     14.735084    6.683561    8.951619    ( 0.0000,  0.0000,  0.0000)
  59 C     20.334131    5.611551   10.009485    ( 0.0000,  0.0000,  0.0000)
  60 C     20.309642    7.611611   11.348495    ( 0.0000,  0.0000,  0.0000)
  61 C     16.760586    6.819028   10.288112    ( 0.0000,  0.0000,  0.0000)
  62 C     18.231964    6.768643   10.409725    ( 0.0000,  0.0000,  0.0000)
  63 C     13.917198    6.745329   10.099631    ( 0.0000,  0.0000,  0.0000)
  64 C     21.038252    6.543853   10.792460    ( 0.0000,  0.0000,  0.0000)
  65 C     10.319913    6.756761   10.591538    ( 0.0000,  0.0000,  0.0000)
  66 C     24.577991    5.771070   10.786992    ( 0.0000,  0.0000,  0.0000)
  67 C     12.475071    6.625250    9.999690    ( 0.0000,  0.0000,  0.0000)
  68 C     22.454334    6.371162   11.075027    ( 0.0000,  0.0000,  0.0000)
  69 N      6.639360    5.920054    7.974048    ( 0.0000,  0.0000,  0.0000)
  70 N      8.120762    5.991586   11.314955    ( 0.0000,  0.0000,  0.0000)
  71 N     26.307001    6.017519    9.047514    ( 0.0000,  0.0000,  0.0000)
  72 N     11.577559    7.163038   10.901181    ( 0.0000,  0.0000,  0.0000)
  73 N     23.366565    5.876070   10.190672    ( 0.0000,  0.0000,  0.0000)
  74 C      7.059934    5.218235    4.557555    ( 0.0000,  0.0000,  0.0000)
  75 C      6.088727    8.932424    8.571431    ( 0.0000,  0.0000,  0.0000)
  76 C      4.663498    7.234228    9.741037    ( 0.0000,  0.0000,  0.0000)
  77 C     26.367161    7.270752    6.962991    ( 0.0000,  0.0000,  0.0000)
  78 C      8.234492    5.101791   12.476992    ( 0.0000,  0.0000,  0.0000)
  79 C      9.334991    5.708446   13.339266    ( 0.0000,  0.0000,  0.0000)
  80 C     27.443567    8.092579    7.660094    ( 0.0000,  0.0000,  0.0000)
  81 C      6.080309    7.766469    9.550693    ( 0.0000,  0.0000,  0.0000)
  82 C      9.350922    7.169050   12.910273    ( 0.0000,  0.0000,  0.0000)
  83 C     28.363043    7.243333    8.548910    ( 0.0000,  0.0000,  0.0000)
  84 C     26.910226    4.955809   11.148149    ( 0.0000,  0.0000,  0.0000)
  85 C      7.094637    6.658790    9.127646    ( 0.0000,  0.0000,  0.0000)
  86 C      9.088996    7.085680   11.398008    ( 0.0000,  0.0000,  0.0000)
  87 C     27.741679    5.881678    8.813443    ( 0.0000,  0.0000,  0.0000)
  88 C     25.781605    5.166534   10.128849    ( 0.0000,  0.0000,  0.0000)

Unit cell:
           periodic     x           y           z      points  spacing
  1. axis:    no    33.338800    0.000000    0.000000   160     0.2084
  2. axis:    no     0.000000   13.718900    0.000000    64     0.2144
  3. axis:    no     0.000000    0.000000   18.411800    90     0.2046

  Lengths:  33.338800  13.718900  18.411800
  Angles:   90.000000  90.000000  90.000000

Effective grid spacing dv^(1/3) = 0.2091

                     log10-error:    total        iterations:
           time      wfs    density  energy       poisson
iter:   1  10:57:54  -2.25         -541.872578           
iter:   2  10:59:18  -3.62  -2.24  -541.852369           
iter:   3  11:00:44  -2.87  -2.26  -541.784280           
iter:   4  11:02:12  -4.26  -2.63  -541.782580           
iter:   5  11:03:38  -4.22  -2.62  -541.777309           
iter:   6  11:05:01  -3.84  -2.80  -541.774560           
iter:   7  11:06:27  -4.86  -2.99  -541.772904           
iter:   8  11:07:54  -5.18  -3.24  -541.772687           
iter:   9  11:09:19  -5.92  -3.51  -541.772694           
iter:  10  11:10:43  -5.64  -3.52  -541.772697           
iter:  11  11:12:07  -6.37  -3.81  -541.772679           
iter:  12  11:13:33  -7.60  -3.93  -541.772677           
iter:  13  11:14:58  -6.53  -3.98  -541.772679           
iter:  14  11:16:22  -7.49  -4.29  -541.772675           

Converged after 14 iterations.

Dipole moment: (1.087464, 0.549849, 0.603070) |e|*Ang

Energy contributions relative to reference atoms: (reference = -66899.788441)

Kinetic:       +419.857375
Potential:     -442.492804
External:        +0.000000
XC:            -518.596352
Entropy (-ST):   +0.000000
Local:           -0.540894
--------------------------
Free energy:   -541.772675
Extrapolated:  -541.772675

 Band  Eigenvalues  Occupancy
    0    -26.80802    2.00000
    1    -25.87092    2.00000
    2    -25.54437    2.00000
    3    -25.34388    2.00000
    4    -25.11167    2.00000
    5    -24.34437    2.00000
    6    -23.98843    2.00000
    7    -23.56154    2.00000
    8    -22.55154    2.00000
    9    -21.70518    2.00000
   10    -21.41659    2.00000
   11    -21.27048    2.00000
   12    -20.86138    2.00000
   13    -20.39598    2.00000
   14    -19.89030    2.00000
   15    -19.78975    2.00000
   16    -19.51816    2.00000
   17    -19.25254    2.00000
   18    -19.03621    2.00000
   19    -18.77577    2.00000
   20    -18.31551    2.00000
   21    -18.24711    2.00000
   22    -18.07458    2.00000
   23    -17.76310    2.00000
   24    -17.46959    2.00000
   25    -17.31782    2.00000
   26    -16.81035    2.00000
   27    -16.45337    2.00000
   28    -16.02041    2.00000
   29    -15.74938    2.00000
   30    -15.58443    2.00000
   31    -15.38374    2.00000
   32    -15.13072    2.00000
   33    -15.05344    2.00000
   34    -14.89908    2.00000
   35    -14.79091    2.00000
   36    -14.52087    2.00000
   37    -14.43464    2.00000
   38    -14.32887    2.00000
   39    -14.17050    2.00000
   40    -14.05040    2.00000
   41    -13.79732    2.00000
   42    -13.64292    2.00000
   43    -13.49553    2.00000
   44    -13.27001    2.00000
   45    -13.05371    2.00000
   46    -12.96287    2.00000
   47    -12.87057    2.00000
   48    -12.64067    2.00000
   49    -12.38224    2.00000
   50    -12.16761    2.00000
   51    -11.88999    2.00000
   52    -11.65164    2.00000
   53    -11.58656    2.00000
   54    -11.33896    2.00000
   55    -11.21592    2.00000
   56    -11.09257    2.00000
   57    -11.05147    2.00000
   58    -10.99393    2.00000
   59    -10.86066    2.00000
   60    -10.78912    2.00000
   61    -10.74049    2.00000
   62    -10.66277    2.00000
   63    -10.51521    2.00000
   64    -10.36066    2.00000
   65    -10.31015    2.00000
   66    -10.30583    2.00000
   67    -10.22183    2.00000
   68    -10.17395    2.00000
   69    -10.09525    2.00000
   70    -10.01460    2.00000
   71     -9.95534    2.00000
   72     -9.89781    2.00000
   73     -9.86812    2.00000
   74     -9.84532    2.00000
   75     -9.81257    2.00000
   76     -9.71681    2.00000
   77     -9.68014    2.00000
   78     -9.45877    2.00000
   79     -9.44124    2.00000
   80     -9.39238    2.00000
   81     -9.31273    2.00000
   82     -9.25717    2.00000
   83     -9.08116    2.00000
   84     -8.95635    2.00000
   85     -8.90566    2.00000
   86     -8.87289    2.00000
   87     -8.77405    2.00000
   88     -8.65257    2.00000
   89     -8.54333    2.00000
   90     -8.50848    2.00000
   91     -8.42918    2.00000
   92     -8.40601    2.00000
   93     -8.36506    2.00000
   94     -8.28023    2.00000
   95     -8.06466    2.00000
   96     -8.03120    2.00000
   97     -7.92524    2.00000
   98     -7.92040    2.00000
   99     -7.88460    2.00000
  100     -7.69381    2.00000
  101     -7.61696    2.00000
  102     -7.56683    2.00000
  103     -7.49705    2.00000
  104     -7.45081    2.00000
  105     -7.22313    2.00000
  106     -7.18328    2.00000
  107     -6.81811    2.00000
  108     -6.54062    2.00000
  109     -6.32760    2.00000
  110     -6.09536    2.00000
  111     -6.06647    2.00000
  112     -5.97950    2.00000
  113     -5.96555    2.00000
  114     -5.92670    2.00000
  115     -5.82232    2.00000
  116     -5.72189    2.00000
  117     -5.59391    2.00000
  118     -5.42672    2.00000
  119     -5.34483    2.00000
  120     -5.14352    2.00000
  121     -4.91442    2.00000
  122     -4.87707    2.00000
  123     -4.81783    2.00000
  124     -4.53937    2.00000
  125     -1.63847    0.00000
  126     -0.97418    0.00000
  127     -0.91227    0.00000
  128     -0.86140    0.00000
  129     -0.77019    0.00000
  130     -0.63555    0.00000
  131     -0.37717    0.00000
  132     -0.33663    0.00000
  133     -0.28668    0.00000
  134     -0.04309    0.00000
  135      0.05530    0.00000
  136      0.12620    0.00000
  137      0.16312    0.00000
  138      0.20630    0.00000
  139      0.24629    0.00000
  140      0.31040    0.00000
  141      0.37086    0.00000
  142      0.41815    0.00000
  143      0.45125    0.00000
  144      0.47364    0.00000
  145      0.52786    0.00000
  146      0.57445    0.00000
  147      0.60747    0.00000
  148      0.66923    0.00000
  149      0.76548    0.00000
  150      0.79945    0.00000
  151      0.83850    0.00000
  152      0.85562    0.00000
  153      0.90531    0.00000

Fermi level: -3.08892

Gap: 2.901 eV
Transition (v -> c):
  (s=0, k=0, n=124, [0.00, 0.00, 0.00]) -> (s=0, k=0, n=125, [0.00, 0.00, 0.00])

Forces in eV/Ang:
  0 H     0.08064   -0.13180   -0.10695
  1 H    -0.07689    0.05411    0.24160
  2 H     0.02299    0.02154   -0.01381
  3 H    -0.02880    0.01154    0.06791
  4 H    -0.05138    0.07265    0.01547
  5 H    -0.02154   -0.05906   -0.06080
  6 H     0.00856   -0.01666   -0.05152
  7 H    -0.02799    0.06171    0.02261
  8 H    -0.01731    0.04594    0.04171
  9 H     0.01627   -0.01560   -0.05564
 10 H     0.09996    0.20239    0.24606
 11 H     0.05197   -0.00609    0.06575
 12 H     0.22762    0.05975    0.01920
 13 H    -0.13784   -0.16993    0.08944
 14 H     0.09699    0.13768   -0.04725
 15 H     0.12872    0.12525   -0.07330
 16 H     0.17300    0.06196   -0.12639
 17 H     0.05362   -0.06440   -0.05038
 18 H    -0.08582    0.04145    0.07390
 19 H     0.04931   -0.04518   -0.01705
 20 H    -0.00844   -0.18611    0.04673
 21 H     0.00872    0.08693   -0.00152
 22 H    -0.05714    0.01932    0.02431
 23 H    -0.15088   -0.20865   -0.02706
 24 H    -0.10643   -0.19256   -0.03311
 25 H    -0.14761   -0.18612    0.10458
 26 H     0.10731   -0.05850   -0.00737
 27 H     0.00961   -0.02029    0.00855
 28 H    -0.02044    0.06977   -0.10558
 29 H    -0.06282    0.06577   -0.03223
 30 H     0.12233   -0.07586    0.02689
 31 H    -0.08021    0.17191   -0.04667
 32 H     0.05208    0.12536   -0.06612
 33 H     0.15291   -0.10538   -0.01455
 34 H     0.03491   -0.17430    0.14980
 35 H     0.03855    0.07617   -0.16854
 36 H    -0.35327    0.10601    0.04563
 37 H    -0.05792    0.04365   -0.06667
 38 H    -0.10644    0.08203    0.00562
 39 H     0.24235   -0.03201   -0.16123
 40 H    -0.01274   -0.09102    0.10846
 41 O    -0.05402   -0.07064   -0.05692
 42 O     0.64947    0.22902    0.09404
 43 O     0.28414    0.21814    0.13974
 44 N    -0.04597   -0.10177    0.22062
 45 N     0.11726   -0.06444   -0.09008
 46 O    -0.07751    0.04507    0.11252
 47 S     0.26541   -0.39073    0.02906
 48 C     0.37563    0.23142   -0.27140
 49 C    -0.94802   -0.40801   -0.18850
 50 C    -0.40430   -0.37087   -0.18901
 51 C    -0.13433   -0.14993   -0.16802
 52 C     0.25780    0.12096    0.25384
 53 C     0.47773    0.09611    0.09437
 54 C     0.39944   -0.14412   -0.06515
 55 C    -0.36318    0.00069   -0.18902
 56 C    -0.38456    0.03772    0.15253
 57 C    -0.45557    0.03374    0.08600
 58 C    -0.48482   -0.08360   -0.05963
 59 C     0.35214   -0.03858   -0.01981
 60 C     0.39063   -0.04513    0.13346
 61 C    -0.07595   -0.00393    0.01634
 62 C     0.04936   -0.01858    0.00403
 63 C     0.30613    0.05501   -0.05558
 64 C    -0.13694    0.00904   -0.04443
 65 C    -0.09394   -0.14238   -0.51936
 66 C    -0.06496    0.17385    0.65097
 67 C    -0.12974    0.22999   -0.34688
 68 C    -0.04084    0.32344    0.34576
 69 N    -0.33766   -0.44090    0.30957
 70 N     0.02647    0.11761    0.01258
 71 N     0.15950    0.11455    0.01691
 72 N     0.48055    0.02249    0.72787
 73 N    -0.52462   -0.75457   -0.83055
 74 C     0.06771    0.02201   -0.19970
 75 C    -0.01109    0.11097   -0.05678
 76 C    -0.12185   -0.01391    0.05118
 77 C     0.12890    0.01940    0.03161
 78 C    -0.12957   -0.10251   -0.06766
 79 C     0.01793   -0.06609    0.03029
 80 C     0.10569    0.22706    0.03488
 81 C    -0.13541    0.11252    0.14547
 82 C     0.00002    0.02288    0.03610
 83 C     0.19585    0.24421   -0.07764
 84 C    -0.04571    0.12411   -0.01038
 85 C     0.14497    0.13810    0.10753
 86 C     0.00539    0.15687   -0.18984
 87 C     0.26353    0.18907   -0.16518
 88 C    -0.35454   -0.01611   -0.02127

System changes: positions 

Initializing position-dependent things.

Density initialized from wave functions
         .---------------------------------------------------------------------------------.  
        /|                                                                                 |  
       / |                                                                                 |  
      /  |                                                                                 |  
     /   |                                                                                 |  
    /    |                                                                                 |  
   /     |                                                                                 |  
  /      |                                                                                 |  
 *       |                                                                                 |  
 |       |                                                                                 |  
 |       |                HH   H                             H                             |  
 |       |                 CC                H     H     H                                 |  
 |       |            H C    H     H   H               C      C  N                         |  
 |       |            H H  C      N      C  C       C       C          H                   |  
 |       |      H   H         C        C      C   C      C       C   HC                    |  
 |       |       C  OCC H           C              C  C       N    C    H S H              |  
 |       |     H      C  H    N  C       C   C         H     H    H  N     C               |  
 |       |          H                   H     H  H                  C    C H H             |  
 |       |         H N            H                              O   HC  H                 |  
 |       |            C O                                              H                   |  
 |       |                                                                                 |  
 |       |          O                                                                      |  
 |       |           C  H                                                                  |  
 |       .----------H----------------------------------------------------------------------.  
 |      /                                                                                 /   
 |     /                                                                                 /    
 |    /                                                                                 /     
 |   /                                                                                 /      
 |  /                                                                                 /       
 | /                                                                                 /        
 |/                                                                                 /         
 *---------------------------------------------------------------------------------*          

Positions:
   0 H     11.955225    5.410070    8.215200    ( 0.0000,  0.0000,  0.0000)
   1 H     22.837307    6.944223   13.183392    ( 0.0000,  0.0000,  0.0000)
   2 H     16.416991    6.952805   12.418679    ( 0.0000,  0.0000,  0.0000)
   3 H     16.715994    6.669132    8.129743    ( 0.0000,  0.0000,  0.0000)
   4 H     18.447298    4.947302    9.250981    ( 0.0000,  0.0000,  0.0000)
   5 H     18.409076    8.563208   11.613244    ( 0.0000,  0.0000,  0.0000)
   6 H     13.980447    6.886564   12.268406    ( 0.0000,  0.0000,  0.0000)
   7 H     14.267095    6.596075    7.964870    ( 0.0000,  0.0000,  0.0000)
   8 H     20.865102    4.755960    9.575591    ( 0.0000,  0.0000,  0.0000)
   9 H     20.834983    8.365251   11.945947    ( 0.0000,  0.0000,  0.0000)
  10 H      6.213697    4.991384    8.160494    ( 0.0000,  0.0000,  0.0000)
  11 H     11.837297    7.770198   11.692946    ( 0.0000,  0.0000,  0.0000)
  12 H     23.223825    5.722871    9.169399    ( 0.0000,  0.0000,  0.0000)
  13 H      6.586571    4.397159    4.003677    ( 0.0000,  0.0000,  0.0000)
  14 H      6.736913    6.177792    4.126024    ( 0.0000,  0.0000,  0.0000)
  15 H      8.153903    5.119681    4.479175    ( 0.0000,  0.0000,  0.0000)
  16 H      7.090846    9.379932    8.494343    ( 0.0000,  0.0000,  0.0000)
  17 H      5.775350    8.624915    7.561106    ( 0.0000,  0.0000,  0.0000)
  18 H      5.396087    9.723107    8.905574    ( 0.0000,  0.0000,  0.0000)
  19 H      4.240857    6.864240    8.792077    ( 0.0000,  0.0000,  0.0000)
  20 H      4.622153    6.419148   10.478877    ( 0.0000,  0.0000,  0.0000)
  21 H      3.998571    8.036509   10.102345    ( 0.0000,  0.0000,  0.0000)
  22 H     26.810824    6.601346    6.197388    ( 0.0000,  0.0000,  0.0000)
  23 H     25.663796    7.938048    6.440883    ( 0.0000,  0.0000,  0.0000)
  24 H      8.467622    4.077592   12.153826    ( 0.0000,  0.0000,  0.0000)
  25 H      7.262660    5.093924   12.995992    ( 0.0000,  0.0000,  0.0000)
  26 H     10.302563    5.233283   13.114568    ( 0.0000,  0.0000,  0.0000)
  27 H      9.139340    5.582930   14.415001    ( 0.0000,  0.0000,  0.0000)
  28 H     28.042133    8.651242    6.924087    ( 0.0000,  0.0000,  0.0000)
  29 H     26.943429    8.844915    8.291608    ( 0.0000,  0.0000,  0.0000)
  30 H      6.410884    8.163635   10.532889    ( 0.0000,  0.0000,  0.0000)
  31 H      8.519221    7.702461   13.396869    ( 0.0000,  0.0000,  0.0000)
  32 H     10.282153    7.685347   13.190169    ( 0.0000,  0.0000,  0.0000)
  33 H     29.343642    7.103773    8.067838    ( 0.0000,  0.0000,  0.0000)
  34 H     28.545363    7.780902    9.492452    ( 0.0000,  0.0000,  0.0000)
  35 H     26.792675    3.998485   11.680969    ( 0.0000,  0.0000,  0.0000)
  36 H     26.956322    5.757308   11.895195    ( 0.0000,  0.0000,  0.0000)
  37 H      8.060084    7.126973    8.867098    ( 0.0000,  0.0000,  0.0000)
  38 H      8.645155    8.022471   11.015466    ( 0.0000,  0.0000,  0.0000)
  39 H     27.874528    5.229658    7.931186    ( 0.0000,  0.0000,  0.0000)
  40 H     25.499549    4.192988    9.675157    ( 0.0000,  0.0000,  0.0000)
  41 O      7.743398    7.084905    6.322736    ( 0.0000,  0.0000,  0.0000)
  42 O     24.393910    6.112476    7.747020    ( 0.0000,  0.0000,  0.0000)
  43 O      6.667487    4.581857   10.283911    ( 0.0000,  0.0000,  0.0000)
  44 N     10.333963    6.029122    9.465820    ( 0.0000,  0.0000,  0.0000)
  45 N     24.506709    6.196715   12.062727    ( 0.0000,  0.0000,  0.0000)
  46 O      6.645338    5.101962    5.909121    ( 0.0000,  0.0000,  0.0000)
  47 S     28.470710    4.970825   10.216071    ( 0.0000,  0.0000,  0.0000)
  48 C      7.081663    6.130715    6.714786    ( 0.0000,  0.0000,  0.0000)
  49 C     25.583072    6.414812    7.943616    ( 0.0000,  0.0000,  0.0000)
  50 C      7.303072    5.651500   10.270828    ( 0.0000,  0.0000,  0.0000)
  51 C     11.655245    5.962686    9.098925    ( 0.0000,  0.0000,  0.0000)
  52 C     23.197276    6.572674   12.231919    ( 0.0000,  0.0000,  0.0000)
  53 C     15.950360    6.906926   11.431524    ( 0.0000,  0.0000,  0.0000)
  54 C     16.115719    6.717839    9.043994    ( 0.0000,  0.0000,  0.0000)
  55 C     18.964982    5.722937    9.823055    ( 0.0000,  0.0000,  0.0000)
  56 C     18.940884    7.719369   11.162340    ( 0.0000,  0.0000,  0.0000)
  57 C     14.565705    6.870228   11.341283    ( 0.0000,  0.0000,  0.0000)
  58 C     14.732373    6.682327    8.950792    ( 0.0000,  0.0000,  0.0000)
  59 C     20.335639    5.611383   10.008547    ( 0.0000,  0.0000,  0.0000)
  60 C     20.311454    7.611231   11.350009    ( 0.0000,  0.0000,  0.0000)
  61 C     16.759247    6.818987   10.288320    ( 0.0000,  0.0000,  0.0000)
  62 C     18.233314    6.768394   10.409902    ( 0.0000,  0.0000,  0.0000)
  63 C     13.918957    6.746024   10.099215    ( 0.0000,  0.0000,  0.0000)
  64 C     21.037813    6.543593   10.791984    ( 0.0000,  0.0000,  0.0000)
  65 C     10.321012    6.758046   10.586534    ( 0.0000,  0.0000,  0.0000)
  66 C     24.574105    5.773020   10.791380    ( 0.0000,  0.0000,  0.0000)
  67 C     12.474488    6.629625    9.993362    ( 0.0000,  0.0000,  0.0000)
  68 C     22.454969    6.376079   11.078691    ( 0.0000,  0.0000,  0.0000)
  69 N      6.636479    5.918120    7.978550    ( 0.0000,  0.0000,  0.0000)
  70 N      8.119499    5.994331   11.312205    ( 0.0000,  0.0000,  0.0000)
  71 N     26.306992    6.020325    9.047460    ( 0.0000,  0.0000,  0.0000)
  72 N     11.582288    7.160496   10.910522    ( 0.0000,  0.0000,  0.0000)
  73 N     23.359415    5.864622   10.184659    ( 0.0000,  0.0000,  0.0000)
  74 C      7.060521    5.218073    4.554842    ( 0.0000,  0.0000,  0.0000)
  75 C      6.089462    8.933189    8.571389    ( 0.0000,  0.0000,  0.0000)
  76 C      4.663112    7.233735    9.742164    ( 0.0000,  0.0000,  0.0000)
  77 C     26.369264    7.272173    6.966545    ( 0.0000,  0.0000,  0.0000)
  78 C      8.232456    5.099436   12.476892    ( 0.0000,  0.0000,  0.0000)
  79 C      9.335600    5.707784   13.338888    ( 0.0000,  0.0000,  0.0000)
  80 C     27.445143    8.095196    7.660528    ( 0.0000,  0.0000,  0.0000)
  81 C      6.075849    7.768848    9.551193    ( 0.0000,  0.0000,  0.0000)
  82 C      9.350302    7.168814   12.911192    ( 0.0000,  0.0000,  0.0000)
  83 C     28.365916    7.247701    8.547020    ( 0.0000,  0.0000,  0.0000)
  84 C     26.909425    4.959030   11.147169    ( 0.0000,  0.0000,  0.0000)
  85 C      7.095651    6.658451    9.129388    ( 0.0000,  0.0000,  0.0000)
  86 C      9.089688    7.086349   11.394628    ( 0.0000,  0.0000,  0.0000)
  87 C     27.747166    5.885939    8.809487    ( 0.0000,  0.0000,  0.0000)
  88 C     25.775931    5.167298   10.130447    ( 0.0000,  0.0000,  0.0000)

Unit cell:
           periodic     x           y           z      points  spacing
  1. axis:    no    33.338800    0.000000    0.000000   160     0.2084
  2. axis:    no     0.000000   13.718900    0.000000    64     0.2144
  3. axis:    no     0.000000    0.000000   18.411800    90     0.2046

  Lengths:  33.338800  13.718900  18.411800
  Angles:   90.000000  90.000000  90.000000

Effective grid spacing dv^(1/3) = 0.2091

                     log10-error:    total        iterations:
           time      wfs    density  energy       poisson
iter:   1  11:18:55  -2.85         -541.878434           
iter:   2  11:20:19  -4.23  -2.60  -541.872239           
iter:   3  11:21:42  -3.51  -2.62  -541.855271           
iter:   4  11:23:06  -4.87  -2.94  -541.855379           
iter:   5  11:24:32  -4.99  -2.94  -541.854309           
iter:   6  11:25:57  -4.48  -3.11  -541.853401           
iter:   7  11:27:20  -5.57  -3.36  -541.853168           
iter:   8  11:28:46  -5.79  -3.56  -541.853125           
iter:   9  11:30:13  -6.37  -3.87  -541.853119           
iter:  10  11:31:39  -6.37  -3.88  -541.853118           
iter:  11  11:33:03  -7.55  -4.22  -541.853115           

Converged after 11 iterations.

Dipole moment: (1.064599, 0.552945, 0.588699) |e|*Ang

Energy contributions relative to reference atoms: (reference = -66899.788441)

Kinetic:       +415.818857
Potential:     -439.506123
External:        +0.000000
XC:            -517.610628
Entropy (-ST):   +0.000000
Local:           -0.555221
--------------------------
Free energy:   -541.853115
Extrapolated:  -541.853115

 Band  Eigenvalues  Occupancy
    0    -26.76611    2.00000
    1    -25.98748    2.00000
    2    -25.52629    2.00000
    3    -25.36714    2.00000
    4    -25.07233    2.00000
    5    -24.40291    2.00000
    6    -23.95701    2.00000
    7    -23.53699    2.00000
    8    -22.53853    2.00000
    9    -21.72126    2.00000
   10    -21.43909    2.00000
   11    -21.28215    2.00000
   12    -20.85365    2.00000
   13    -20.35785    2.00000
   14    -19.85391    2.00000
   15    -19.73601    2.00000
   16    -19.50559    2.00000
   17    -19.22829    2.00000
   18    -19.00658    2.00000
   19    -18.74277    2.00000
   20    -18.29262    2.00000
   21    -18.22970    2.00000
   22    -18.05956    2.00000
   23    -17.73437    2.00000
   24    -17.44310    2.00000
   25    -17.28966    2.00000
   26    -16.78875    2.00000
   27    -16.42332    2.00000
   28    -16.01816    2.00000
   29    -15.72283    2.00000
   30    -15.53786    2.00000
   31    -15.35445    2.00000
   32    -15.11511    2.00000
   33    -15.05169    2.00000
   34    -14.89688    2.00000
   35    -14.77244    2.00000
   36    -14.50357    2.00000
   37    -14.42930    2.00000
   38    -14.34056    2.00000
   39    -14.17643    2.00000
   40    -14.04206    2.00000
   41    -13.77758    2.00000
   42    -13.61139    2.00000
   43    -13.47447    2.00000
   44    -13.24025    2.00000
   45    -13.04225    2.00000
   46    -12.95678    2.00000
   47    -12.84285    2.00000
   48    -12.61385    2.00000
   49    -12.35595    2.00000
   50    -12.13948    2.00000
   51    -11.85088    2.00000
   52    -11.62035    2.00000
   53    -11.56451    2.00000
   54    -11.33223    2.00000
   55    -11.20552    2.00000
   56    -11.08659    2.00000
   57    -11.03374    2.00000
   58    -10.97775    2.00000
   59    -10.85034    2.00000
   60    -10.78881    2.00000
   61    -10.72249    2.00000
   62    -10.64447    2.00000
   63    -10.49622    2.00000
   64    -10.36844    2.00000
   65    -10.31699    2.00000
   66    -10.30154    2.00000
   67    -10.21269    2.00000
   68    -10.16528    2.00000
   69    -10.07140    2.00000
   70    -10.02320    2.00000
   71     -9.94157    2.00000
   72     -9.88530    2.00000
   73     -9.86061    2.00000
   74     -9.85958    2.00000
   75     -9.80840    2.00000
   76     -9.71370    2.00000
   77     -9.67360    2.00000
   78     -9.45931    2.00000
   79     -9.43796    2.00000
   80     -9.39494    2.00000
   81     -9.33190    2.00000
   82     -9.22255    2.00000
   83     -9.07576    2.00000
   84     -8.92170    2.00000
   85     -8.88469    2.00000
   86     -8.86426    2.00000
   87     -8.77398    2.00000
   88     -8.64159    2.00000
   89     -8.56630    2.00000
   90     -8.49660    2.00000
   91     -8.43276    2.00000
   92     -8.39614    2.00000
   93     -8.37608    2.00000
   94     -8.28620    2.00000
   95     -8.07984    2.00000
   96     -8.02783    2.00000
   97     -7.95343    2.00000
   98     -7.90682    2.00000
   99     -7.86464    2.00000
  100     -7.72243    2.00000
  101     -7.61618    2.00000
  102     -7.58974    2.00000
  103     -7.48328    2.00000
  104     -7.45646    2.00000
  105     -7.24830    2.00000
  106     -7.16567    2.00000
  107     -6.83584    2.00000
  108     -6.55519    2.00000
  109     -6.34804    2.00000
  110     -6.08884    2.00000
  111     -6.07321    2.00000
  112     -5.99513    2.00000
  113     -5.95402    2.00000
  114     -5.94846    2.00000
  115     -5.85132    2.00000
  116     -5.73986    2.00000
  117     -5.61814    2.00000
  118     -5.47167    2.00000
  119     -5.33687    2.00000
  120     -5.18005    2.00000
  121     -4.91598    2.00000
  122     -4.87714    2.00000
  123     -4.81365    2.00000
  124     -4.54082    2.00000
  125     -1.62713    0.00000
  126     -1.00171    0.00000
  127     -0.89671    0.00000
  128     -0.82784    0.00000
  129     -0.79596    0.00000
  130     -0.63334    0.00000
  131     -0.37813    0.00000
  132     -0.32765    0.00000
  133     -0.28886    0.00000
  134     -0.03665    0.00000
  135      0.05426    0.00000
  136      0.11141    0.00000
  137      0.16603    0.00000
  138      0.20694    0.00000
  139      0.24435    0.00000
  140      0.31221    0.00000
  141      0.37052    0.00000
  142      0.41395    0.00000
  143      0.45086    0.00000
  144      0.47169    0.00000
  145      0.52831    0.00000
  146      0.57598    0.00000
  147      0.60499    0.00000
  148      0.66960    0.00000
  149      0.73459    0.00000
  150      0.76246    0.00000
  151      0.80210    0.00000
  152      0.80655    0.00000
  153      0.88886    0.00000

Fermi level: -3.08397

Gap: 2.914 eV
Transition (v -> c):
  (s=0, k=0, n=124, [0.00, 0.00, 0.00]) -> (s=0, k=0, n=125, [0.00, 0.00, 0.00])

Forces in eV/Ang:
  0 H     0.06451   -0.12704   -0.09571
  1 H    -0.04854    0.05040    0.22264
  2 H     0.06251    0.02825    0.03817
  3 H     0.01579   -0.00070    0.01449
  4 H    -0.08232    0.03575   -0.02012
  5 H    -0.05910   -0.01533   -0.02641
  6 H    -0.00756   -0.01381   -0.03640
  7 H    -0.05068    0.05498   -0.00546
  8 H     0.00543    0.01405    0.02370
  9 H     0.03395   -0.00182   -0.03767
 10 H     0.07088    0.10621    0.23134
 11 H     0.07604    0.05093    0.12221
 12 H     0.16514    0.03418   -0.15256
 13 H    -0.09970   -0.12225    0.07453
 14 H     0.09788    0.08091   -0.04336
 15 H     0.06858    0.10964   -0.07491
 16 H     0.09100    0.02558   -0.10093
 17 H     0.05995   -0.03957    0.00349
 18 H    -0.02340   -0.00271    0.02778
 19 H     0.05747   -0.02873    0.02136
 20 H    -0.00451   -0.12411    0.01054
 21 H     0.01765    0.03365   -0.00924
 22 H    -0.07481    0.07976    0.09476
 23 H    -0.07542   -0.22351    0.01894
 24 H    -0.11015   -0.14698   -0.03034
 25 H    -0.10194   -0.17146    0.07019
 26 H     0.06726   -0.03878   -0.00401
 27 H     0.01963   -0.01959   -0.02699
 28 H    -0.02755    0.07736   -0.10074
 29 H    -0.04158    0.07555   -0.02519
 30 H     0.07568   -0.07316   -0.01623
 31 H    -0.04603    0.13449   -0.06396
 32 H    -0.02045    0.07967   -0.07389
 33 H     0.16259   -0.05978   -0.02119
 34 H     0.04932   -0.14671    0.12502
 35 H     0.03777    0.12519   -0.17220
 36 H    -0.31160    0.11732    0.03924
 37 H    -0.07493    0.02412   -0.03871
 38 H    -0.06889    0.04837    0.01399
 39 H     0.23184    0.02709   -0.11102
 40 H    -0.02642   -0.02894    0.12922
 41 O     0.09325    0.10643   -0.09588
 42 O    -0.13736    0.00996   -0.04453
 43 O     0.02729   -0.13215    0.10425
 44 N     0.04496   -0.01958    0.19551
 45 N     0.04534   -0.03768   -0.15329
 46 O     0.05706    0.22356    0.16945
 47 S     0.08513   -0.25349   -0.05556
 48 C    -0.04664   -0.23320    0.00442
 49 C     0.03596   -0.06454   -0.02282
 50 C    -0.07064    0.04515   -0.08095
 51 C    -0.05861   -0.06150   -0.10243
 52 C     0.09142    0.13191    0.11624
 53 C     0.10386    0.07240    0.04639
 54 C     0.11166   -0.12212   -0.02036
 55 C    -0.08878    0.01066   -0.11617
 56 C    -0.10995   -0.01480    0.13097
 57 C    -0.16864    0.04081    0.08385
 58 C    -0.15946   -0.06592   -0.05005
 59 C     0.14811   -0.01068   -0.04037
 60 C     0.13747   -0.03569    0.08518
 61 C     0.08210   -0.01345   -0.01302
 62 C    -0.09623    0.00081   -0.00133
 63 C     0.14349    0.04025   -0.07926
 64 C    -0.06975    0.06402    0.05156
 65 C    -0.02792   -0.08173   -0.24855
 66 C    -0.09543    0.00996    0.31387
 67 C    -0.11990    0.20690   -0.13685
 68 C     0.00674    0.13041    0.10956
 69 N    -0.10356   -0.20234   -0.08997
 70 N    -0.00348   -0.03341    0.11452
 71 N     0.11127    0.01080    0.02564
 72 N     0.26561   -0.22407    0.22746
 73 N    -0.29541   -0.49506    0.00542
 74 C     0.05437    0.02149   -0.14793
 75 C    -0.04456    0.17652   -0.08548
 76 C    -0.19823   -0.02171    0.05130
 77 C    -0.01105   -0.07599   -0.15706
 78 C    -0.09317   -0.01685   -0.11274
 79 C    -0.01362   -0.09069    0.04368
 80 C     0.06833    0.22116    0.02677
 81 C     0.08421    0.04372    0.20378
 82 C     0.05086    0.07813   -0.02921
 83 C     0.20032    0.16240   -0.00907
 84 C    -0.04109    0.01549   -0.00593
 85 C     0.00919    0.14574    0.05910
 86 C    -0.03584    0.16945   -0.13294
 87 C     0.10927    0.01913   -0.06706
 88 C    -0.12936   -0.02003   -0.07956

System changes: positions 

Initializing position-dependent things.

Density initialized from wave functions
         .---------------------------------------------------------------------------------.  
        /|                                                                                 |  
       / |                                                                                 |  
      /  |                                                                                 |  
     /   |                                                                                 |  
    /    |                                                                                 |  
   /     |                                                                                 |  
  /      |                                                                                 |  
 *       |                                                                                 |  
 |       |                                                                                 |  
 |       |                HH   H                             H                             |  
 |       |                 CC                H           H                                 |  
 |       |            H C    H     H   H           H   C      C  N                         |  
 |       |            H H  C      N      C  C       C       C          H                   |  
 |       |      H   H         C        C      C   C      C       C   HC                    |  
 |       |       C  OCC H           C              C  C       N    C    H S H              |  
 |       |     H      C  H    N  C       C   C         H     H    H  N     C               |  
 |       |          H                   H     H  H                  C    C H H             |  
 |       |         H N            H                              O   HC  H                 |  
 |       |            C O                                              H                   |  
 |       |                                                                                 |  
 |       |          O                                                                      |  
 |       |           C  H                                                                  |  
 |       .----------H----------------------------------------------------------------------.  
 |      /                                                                                 /   
 |     /                                                                                 /    
 |    /                                                                                 /     
 |   /                                                                                 /      
 |  /                                                                                 /       
 | /                                                                                 /        
 |/                                                                                 /         
 *---------------------------------------------------------------------------------*          

Positions:
   0 H     11.957803    5.405224    8.211346    ( 0.0000,  0.0000,  0.0000)
   1 H     22.835281    6.946011   13.191702    ( 0.0000,  0.0000,  0.0000)
   2 H     16.419330    6.953764   12.420212    ( 0.0000,  0.0000,  0.0000)
   3 H     16.716826    6.669257    8.129992    ( 0.0000,  0.0000,  0.0000)
   4 H     18.444055    4.948328    9.250168    ( 0.0000,  0.0000,  0.0000)
   5 H     18.406695    8.563016   11.612258    ( 0.0000,  0.0000,  0.0000)
   6 H     13.978946    6.886016   12.268513    ( 0.0000,  0.0000,  0.0000)
   7 H     14.264658    6.598074    7.963953    ( 0.0000,  0.0000,  0.0000)
   8 H     20.865822    4.756094    9.576393    ( 0.0000,  0.0000,  0.0000)
   9 H     20.836913    8.365820   11.945040    ( 0.0000,  0.0000,  0.0000)
  10 H      6.214587    4.991909    8.170127    ( 0.0000,  0.0000,  0.0000)
  11 H     11.840985    7.773909   11.700173    ( 0.0000,  0.0000,  0.0000)
  12 H     23.229629    5.723477    9.160291    ( 0.0000,  0.0000,  0.0000)
  13 H      6.582264    4.391927    4.006868    ( 0.0000,  0.0000,  0.0000)
  14 H      6.740369    6.182117    4.124264    ( 0.0000,  0.0000,  0.0000)
  15 H      8.157876    5.123956    4.476496    ( 0.0000,  0.0000,  0.0000)
  16 H      7.095645    9.381667    8.490100    ( 0.0000,  0.0000,  0.0000)
  17 H      5.777223    8.622823    7.559758    ( 0.0000,  0.0000,  0.0000)
  18 H      5.393548    9.724444    8.907656    ( 0.0000,  0.0000,  0.0000)
  19 H      4.242657    6.862750    8.791712    ( 0.0000,  0.0000,  0.0000)
  20 H      4.621733    6.413483   10.479916    ( 0.0000,  0.0000,  0.0000)
  21 H      3.998598    8.039264   10.102401    ( 0.0000,  0.0000,  0.0000)
  22 H     26.809084    6.602077    6.198357    ( 0.0000,  0.0000,  0.0000)
  23 H     25.659371    7.930624    6.440159    ( 0.0000,  0.0000,  0.0000)
  24 H      8.463701    4.071343   12.152695    ( 0.0000,  0.0000,  0.0000)
  25 H      7.258052    5.087335   12.999257    ( 0.0000,  0.0000,  0.0000)
  26 H     10.305701    5.231489   13.114407    ( 0.0000,  0.0000,  0.0000)
  27 H      9.139734    5.582131   14.415343    ( 0.0000,  0.0000,  0.0000)
  28 H     28.041532    8.654208    6.920085    ( 0.0000,  0.0000,  0.0000)
  29 H     26.941269    8.847817    8.290775    ( 0.0000,  0.0000,  0.0000)
  30 H      6.414907    8.161392   10.534263    ( 0.0000,  0.0000,  0.0000)
  31 H      8.516978    7.708086   13.394814    ( 0.0000,  0.0000,  0.0000)
  32 H     10.283301    7.689406   13.187806    ( 0.0000,  0.0000,  0.0000)
  33 H     29.349501    7.100711    8.067175    ( 0.0000,  0.0000,  0.0000)
  34 H     28.546977    7.775146    9.497768    ( 0.0000,  0.0000,  0.0000)
  35 H     26.794033    4.001287   11.675243    ( 0.0000,  0.0000,  0.0000)
  36 H     26.944098    5.761227   11.896620    ( 0.0000,  0.0000,  0.0000)
  37 H      8.058889    7.128648    8.864745    ( 0.0000,  0.0000,  0.0000)
  38 H      8.641422    8.025872   11.015422    ( 0.0000,  0.0000,  0.0000)
  39 H     27.883366    5.229488    7.926171    ( 0.0000,  0.0000,  0.0000)
  40 H     25.498295    4.189854    9.679174    ( 0.0000,  0.0000,  0.0000)
  41 O      7.746274    7.088719    6.318568    ( 0.0000,  0.0000,  0.0000)
  42 O     24.390272    6.113575    7.746136    ( 0.0000,  0.0000,  0.0000)
  43 O      6.669857    4.578140   10.288240    ( 0.0000,  0.0000,  0.0000)
  44 N     10.332801    6.024071    9.469346    ( 0.0000,  0.0000,  0.0000)
  45 N     24.510388    6.196271   12.063490    ( 0.0000,  0.0000,  0.0000)
  46 O      6.644993    5.105373    5.910414    ( 0.0000,  0.0000,  0.0000)
  47 S     28.477393    4.958685   10.216127    ( 0.0000,  0.0000,  0.0000)
  48 C      7.084360    6.127725    6.716625    ( 0.0000,  0.0000,  0.0000)
  49 C     25.582519    6.409677    7.941466    ( 0.0000,  0.0000,  0.0000)
  50 C      7.299754    5.652371   10.268220    ( 0.0000,  0.0000,  0.0000)
  51 C     11.652691    5.959424    9.094844    ( 0.0000,  0.0000,  0.0000)
  52 C     23.202227    6.577460   12.238290    ( 0.0000,  0.0000,  0.0000)
  53 C     15.953824    6.909807   11.433275    ( 0.0000,  0.0000,  0.0000)
  54 C     16.117732    6.712937    9.043032    ( 0.0000,  0.0000,  0.0000)
  55 C     18.962576    5.723709    9.818906    ( 0.0000,  0.0000,  0.0000)
  56 C     18.938017    7.718107   11.167477    ( 0.0000,  0.0000,  0.0000)
  57 C     14.563061    6.871835   11.343435    ( 0.0000,  0.0000,  0.0000)
  58 C     14.729325    6.679899    8.949056    ( 0.0000,  0.0000,  0.0000)
  59 C     20.338022    5.611251   10.006550    ( 0.0000,  0.0000,  0.0000)
  60 C     20.313642    7.610286   11.352820    ( 0.0000,  0.0000,  0.0000)
  61 C     16.760129    6.818649   10.288136    ( 0.0000,  0.0000,  0.0000)
  62 C     18.232344    6.768254   10.410064    ( 0.0000,  0.0000,  0.0000)
  63 C     13.921959    6.747397   10.097282    ( 0.0000,  0.0000,  0.0000)
  64 C     21.036787    6.544699   10.792981    ( 0.0000,  0.0000,  0.0000)
  65 C     10.322593    6.759014   10.578707    ( 0.0000,  0.0000,  0.0000)
  66 C     24.567383    5.774257   10.798808    ( 0.0000,  0.0000,  0.0000)
  67 C     12.472024    6.638181    9.984966    ( 0.0000,  0.0000,  0.0000)
  68 C     22.456307    6.382703   11.083004    ( 0.0000,  0.0000,  0.0000)
  69 N      6.633251    5.914676    7.979526    ( 0.0000,  0.0000,  0.0000)
  70 N      8.117553    5.996059   11.311257    ( 0.0000,  0.0000,  0.0000)
  71 N     26.308226    6.023208    9.047852    ( 0.0000,  0.0000,  0.0000)
  72 N     11.590502    7.151691   10.921630    ( 0.0000,  0.0000,  0.0000)
  73 N     23.347747    5.844668   10.184283    ( 0.0000,  0.0000,  0.0000)
  74 C      7.061977    5.218180    4.549570    ( 0.0000,  0.0000,  0.0000)
  75 C      6.089451    8.937397    8.569801    ( 0.0000,  0.0000,  0.0000)
  76 C      4.658972    7.232704    9.744391    ( 0.0000,  0.0000,  0.0000)
  77 C     26.370593    7.272037    6.967135    ( 0.0000,  0.0000,  0.0000)
  78 C      8.228745    5.096887   12.474678    ( 0.0000,  0.0000,  0.0000)
  79 C      9.335907    5.705354   13.339170    ( 0.0000,  0.0000,  0.0000)
  80 C     27.447879    8.101843    7.661419    ( 0.0000,  0.0000,  0.0000)
  81 C      6.073266    7.771977    9.555404    ( 0.0000,  0.0000,  0.0000)
  82 C      9.350708    7.170163   12.911371    ( 0.0000,  0.0000,  0.0000)
  83 C     28.372673    7.255068    8.545040    ( 0.0000,  0.0000,  0.0000)
  84 C     26.907814    4.962477   11.145852    ( 0.0000,  0.0000,  0.0000)
  85 C      7.095911    6.660264    9.132104    ( 0.0000,  0.0000,  0.0000)
  86 C      9.089685    7.089862   11.388763    ( 0.0000,  0.0000,  0.0000)
  87 C     27.754551    5.890248    8.804224    ( 0.0000,  0.0000,  0.0000)
  88 C     25.768627    5.167952   10.130812    ( 0.0000,  0.0000,  0.0000)

Unit cell:
           periodic     x           y           z      points  spacing
  1. axis:    no    33.338800    0.000000    0.000000   160     0.2084
  2. axis:    no     0.000000   13.718900    0.000000    64     0.2144
  3. axis:    no     0.000000    0.000000   18.411800    90     0.2046

  Lengths:  33.338800  13.718900  18.411800
  Angles:   90.000000  90.000000  90.000000

Effective grid spacing dv^(1/3) = 0.2091

                     log10-error:    total        iterations:
           time      wfs    density  energy       poisson
iter:   1  11:35:38  -2.68         -541.931684           
iter:   2  11:37:04  -3.98  -2.55  -541.928305           
iter:   3  11:38:29  -3.50  -2.57  -541.914114           
iter:   4  11:39:56  -5.14  -2.91  -541.914235           
iter:   5  11:41:22  -4.80  -2.90  -541.914425           
iter:   6  11:42:46  -4.28  -2.96  -541.912782           
iter:   7  11:44:10  -5.88  -3.32  -541.912553           
iter:   8  11:45:35  -5.73  -3.48  -541.912504           
iter:   9  11:47:02  -6.79  -3.83  -541.912504           
iter:  10  11:48:24  -6.68  -3.85  -541.912496           
iter:  11  11:49:49  -7.89  -3.97  -541.912495           
iter:  12  11:51:11  -6.55  -4.00  -541.912497           
iter:  13  11:52:36  -7.08  -4.31  -541.912493           
iter:  14  11:54:02  -8.42  -4.54  -541.912493           

Converged after 14 iterations.

Dipole moment: (1.067482, 0.553795, 0.576719) |e|*Ang

Energy contributions relative to reference atoms: (reference = -66899.788441)

Kinetic:       +407.787438
Potential:     -433.418423
External:        +0.000000
XC:            -515.729069
Entropy (-ST):   +0.000000
Local:           -0.552439
--------------------------
Free energy:   -541.912493
Extrapolated:  -541.912493

 Band  Eigenvalues  Occupancy
    0    -26.74235    2.00000
    1    -25.96893    2.00000
    2    -25.49962    2.00000
    3    -25.33956    2.00000
    4    -25.03133    2.00000
    5    -24.31280    2.00000
    6    -23.90236    2.00000
    7    -23.48816    2.00000
    8    -22.52292    2.00000
    9    -21.74966    2.00000
   10    -21.46582    2.00000
   11    -21.27606    2.00000
   12    -20.82839    2.00000
   13    -20.32355    2.00000
   14    -19.80694    2.00000
   15    -19.68918    2.00000
   16    -19.48438    2.00000
   17    -19.20761    2.00000
   18    -18.96692    2.00000
   19    -18.71042    2.00000
   20    -18.26313    2.00000
   21    -18.20351    2.00000
   22    -18.03386    2.00000
   23    -17.71293    2.00000
   24    -17.43764    2.00000
   25    -17.26726    2.00000
   26    -16.77035    2.00000
   27    -16.42253    2.00000
   28    -16.01032    2.00000
   29    -15.69988    2.00000
   30    -15.50820    2.00000
   31    -15.33247    2.00000
   32    -15.10816    2.00000
   33    -15.04213    2.00000
   34    -14.88313    2.00000
   35    -14.75166    2.00000
   36    -14.48134    2.00000
   37    -14.42002    2.00000
   38    -14.33956    2.00000
   39    -14.15998    2.00000
   40    -14.01474    2.00000
   41    -13.78520    2.00000
   42    -13.58779    2.00000
   43    -13.45191    2.00000
   44    -13.21314    2.00000
   45    -13.04183    2.00000
   46    -12.95677    2.00000
   47    -12.81793    2.00000
   48    -12.60141    2.00000
   49    -12.32726    2.00000
   50    -12.12451    2.00000
   51    -11.80524    2.00000
   52    -11.59678    2.00000
   53    -11.54839    2.00000
   54    -11.31501    2.00000
   55    -11.18738    2.00000
   56    -11.07471    2.00000
   57    -11.01948    2.00000
   58    -10.96562    2.00000
   59    -10.83952    2.00000
   60    -10.78214    2.00000
   61    -10.70827    2.00000
   62    -10.62994    2.00000
   63    -10.48263    2.00000
   64    -10.37812    2.00000
   65    -10.32085    2.00000
   66    -10.28465    2.00000
   67    -10.19718    2.00000
   68    -10.14761    2.00000
[...]
  19 H      4.250045    6.900134    8.922522    ( 0.0000,  0.0000,  0.0000)
  20 H      4.694083    6.431541   10.578247    ( 0.0000,  0.0000,  0.0000)
  21 H      4.051962    8.065497   10.252871    ( 0.0000,  0.0000,  0.0000)
  22 H     26.934368    6.576056    6.220976    ( 0.0000,  0.0000,  0.0000)
  23 H     25.741024    7.871148    6.351931    ( 0.0000,  0.0000,  0.0000)
  24 H      8.523122    4.041975   12.063175    ( 0.0000,  0.0000,  0.0000)
  25 H      7.254058    4.966963   12.886397    ( 0.0000,  0.0000,  0.0000)
  26 H     10.278544    5.228910   13.154768    ( 0.0000,  0.0000,  0.0000)
  27 H      9.044890    5.607980   14.372387    ( 0.0000,  0.0000,  0.0000)
  28 H     28.097844    8.673387    6.932261    ( 0.0000,  0.0000,  0.0000)
  29 H     26.934597    8.901921    8.236956    ( 0.0000,  0.0000,  0.0000)
  30 H      6.520344    8.166893   10.560926    ( 0.0000,  0.0000,  0.0000)
  31 H      8.496287    7.736184   13.269784    ( 0.0000,  0.0000,  0.0000)
  32 H     10.260822    7.691014   13.119789    ( 0.0000,  0.0000,  0.0000)
  33 H     29.411829    7.239694    8.262493    ( 0.0000,  0.0000,  0.0000)
  34 H     28.424893    7.785627    9.627251    ( 0.0000,  0.0000,  0.0000)
  35 H     26.831509    4.172635   11.747409    ( 0.0000,  0.0000,  0.0000)
  36 H     27.004787    5.947330   11.724060    ( 0.0000,  0.0000,  0.0000)
  37 H      8.038110    7.132499    8.810199    ( 0.0000,  0.0000,  0.0000)
  38 H      8.687620    7.980031   10.909929    ( 0.0000,  0.0000,  0.0000)
  39 H     28.030307    5.341426    7.840471    ( 0.0000,  0.0000,  0.0000)
  40 H     25.523886    4.168868    9.717457    ( 0.0000,  0.0000,  0.0000)
  41 O      7.763445    7.097086    6.341740    ( 0.0000,  0.0000,  0.0000)
  42 O     24.401185    6.222418    7.756681    ( 0.0000,  0.0000,  0.0000)
  43 O      6.670010    4.566511   10.232720    ( 0.0000,  0.0000,  0.0000)
  44 N     10.387992    5.999522    9.409958    ( 0.0000,  0.0000,  0.0000)
  45 N     24.589493    6.247930   12.039683    ( 0.0000,  0.0000,  0.0000)
  46 O      6.659534    5.146497    5.869800    ( 0.0000,  0.0000,  0.0000)
  47 S     28.463961    4.836775   10.108872    ( 0.0000,  0.0000,  0.0000)
  48 C      7.069570    6.150715    6.704251    ( 0.0000,  0.0000,  0.0000)
  49 C     25.621276    6.428213    7.907973    ( 0.0000,  0.0000,  0.0000)
  50 C      7.300105    5.641905   10.218430    ( 0.0000,  0.0000,  0.0000)
  51 C     11.705928    5.948482    9.029233    ( 0.0000,  0.0000,  0.0000)
  52 C     23.287237    6.627618   12.260311    ( 0.0000,  0.0000,  0.0000)
  53 C     15.968303    7.025870   11.416150    ( 0.0000,  0.0000,  0.0000)
  54 C     16.183642    6.614984    9.057054    ( 0.0000,  0.0000,  0.0000)
  55 C     19.028334    5.827075    9.771209    ( 0.0000,  0.0000,  0.0000)
  56 C     18.939365    7.622044   11.369513    ( 0.0000,  0.0000,  0.0000)
  57 C     14.585178    6.968688   11.299158    ( 0.0000,  0.0000,  0.0000)
  58 C     14.800765    6.569153    8.934296    ( 0.0000,  0.0000,  0.0000)
  59 C     20.395753    5.705917    9.984443    ( 0.0000,  0.0000,  0.0000)
  60 C     20.308546    7.508076   11.579013    ( 0.0000,  0.0000,  0.0000)
  61 C     16.801919    6.831436   10.302272    ( 0.0000,  0.0000,  0.0000)
  62 C     18.265488    6.780928   10.465798    ( 0.0000,  0.0000,  0.0000)
  63 C     13.967577    6.727939   10.058044    ( 0.0000,  0.0000,  0.0000)
  64 C     21.066858    6.537955   10.898381    ( 0.0000,  0.0000,  0.0000)
  65 C     10.371436    6.692705   10.547827    ( 0.0000,  0.0000,  0.0000)
  66 C     24.601949    5.777615   10.787295    ( 0.0000,  0.0000,  0.0000)
  67 C     12.523966    6.600201    9.940431    ( 0.0000,  0.0000,  0.0000)
  68 C     22.491574    6.374001   11.149765    ( 0.0000,  0.0000,  0.0000)
  69 N      6.551932    5.967948    7.954149    ( 0.0000,  0.0000,  0.0000)
  70 N      8.127756    5.969657   11.254416    ( 0.0000,  0.0000,  0.0000)
  71 N     26.351610    5.968128    8.971649    ( 0.0000,  0.0000,  0.0000)
  72 N     11.641088    7.068934   10.900454    ( 0.0000,  0.0000,  0.0000)
  73 N     23.353050    5.797356   10.236721    ( 0.0000,  0.0000,  0.0000)
  74 C      7.094690    5.305481    4.515696    ( 0.0000,  0.0000,  0.0000)
  75 C      6.085558    8.970518    8.615228    ( 0.0000,  0.0000,  0.0000)
  76 C      4.700581    7.266149    9.859536    ( 0.0000,  0.0000,  0.0000)
  77 C     26.443850    7.261068    6.938969    ( 0.0000,  0.0000,  0.0000)
  78 C      8.241007    5.052802   12.399901    ( 0.0000,  0.0000,  0.0000)
  79 C      9.295245    5.703788   13.305868    ( 0.0000,  0.0000,  0.0000)
  80 C     27.482472    8.133076    7.668580    ( 0.0000,  0.0000,  0.0000)
  81 C      6.109714    7.799698    9.599087    ( 0.0000,  0.0000,  0.0000)
  82 C      9.335097    7.164352   12.838789    ( 0.0000,  0.0000,  0.0000)
  83 C     28.377384    7.312804    8.634051    ( 0.0000,  0.0000,  0.0000)
  84 C     26.954751    5.048478   11.095064    ( 0.0000,  0.0000,  0.0000)
  85 C      7.077893    6.677682    9.104792    ( 0.0000,  0.0000,  0.0000)
  86 C      9.117426    7.049074   11.321022    ( 0.0000,  0.0000,  0.0000)
  87 C     27.811237    5.900140    8.769353    ( 0.0000,  0.0000,  0.0000)
  88 C     25.800684    5.171110   10.099729    ( 0.0000,  0.0000,  0.0000)

Unit cell:
           periodic     x           y           z      points  spacing
  1. axis:    no    33.338800    0.000000    0.000000   160     0.2084
  2. axis:    no     0.000000   13.718900    0.000000    64     0.2144
  3. axis:    no     0.000000    0.000000   18.411800    90     0.2046

  Lengths:  33.338800  13.718900  18.411800
  Angles:   90.000000  90.000000  90.000000

Effective grid spacing dv^(1/3) = 0.2091

                     log10-error:    total        iterations:
           time      wfs    density  energy       poisson
iter:   1  23:23:38  -2.93         -542.130995           
iter:   2  23:25:03  -4.29  -2.65  -542.130148           
iter:   3  23:26:30  -4.01  -2.66  -542.121952           
iter:   4  23:27:55  -5.48  -3.17  -542.121867           
iter:   5  23:29:20  -5.26  -3.18  -542.121709           
iter:   6  23:30:46  -5.45  -3.29  -542.121618           
iter:   7  23:32:10  -5.90  -3.46  -542.121557           
iter:   8  23:33:34  -6.41  -3.81  -542.121558           
iter:   9  23:34:57  -6.54  -3.98  -542.121549           
iter:  10  23:36:21  -7.23  -4.12  -542.121547           
iter:  11  23:37:49  -8.44  -4.50  -542.121546           

Converged after 11 iterations.

Dipole moment: (1.144110, 0.546114, 0.595949) |e|*Ang

Energy contributions relative to reference atoms: (reference = -66899.788441)

Kinetic:       +405.879444
Potential:     -431.994374
External:        +0.000000
XC:            -515.405851
Entropy (-ST):   +0.000000
Local:           -0.600765
--------------------------
Free energy:   -542.121546
Extrapolated:  -542.121546

 Band  Eigenvalues  Occupancy
    0    -26.81574    2.00000
    1    -25.86094    2.00000
    2    -25.51846    2.00000
    3    -25.35147    2.00000
    4    -25.03937    2.00000
    5    -24.38724    2.00000
    6    -23.87056    2.00000
    7    -23.51329    2.00000
    8    -22.50900    2.00000
    9    -21.73263    2.00000
   10    -21.45860    2.00000
   11    -21.26882    2.00000
   12    -20.81837    2.00000
   13    -20.32393    2.00000
   14    -19.80716    2.00000
   15    -19.73066    2.00000
   16    -19.47951    2.00000
   17    -19.20656    2.00000
   18    -18.95449    2.00000
   19    -18.70162    2.00000
   20    -18.27332    2.00000
   21    -18.22364    2.00000
   22    -18.01197    2.00000
   23    -17.71600    2.00000
   24    -17.40626    2.00000
   25    -17.28374    2.00000
   26    -16.79820    2.00000
   27    -16.44063    2.00000
   28    -16.02095    2.00000
   29    -15.70901    2.00000
   30    -15.51306    2.00000
   31    -15.35769    2.00000
   32    -15.13399    2.00000
   33    -15.09516    2.00000
   34    -14.89183    2.00000
   35    -14.73428    2.00000
   36    -14.49206    2.00000
   37    -14.39062    2.00000
   38    -14.35175    2.00000
   39    -14.10904    2.00000
   40    -13.97886    2.00000
   41    -13.80307    2.00000
   42    -13.58963    2.00000
   43    -13.47795    2.00000
   44    -13.25012    2.00000
   45    -13.03046    2.00000
   46    -12.94741    2.00000
   47    -12.79616    2.00000
   48    -12.64099    2.00000
   49    -12.31944    2.00000
   50    -12.12391    2.00000
   51    -11.80728    2.00000
   52    -11.61510    2.00000
   53    -11.57138    2.00000
   54    -11.30592    2.00000
   55    -11.18072    2.00000
   56    -11.07466    2.00000
   57    -10.99942    2.00000
   58    -10.94464    2.00000
   59    -10.83100    2.00000
   60    -10.73237    2.00000
   61    -10.68636    2.00000
   62    -10.66920    2.00000
   63    -10.49218    2.00000
   64    -10.34123    2.00000
   65    -10.30497    2.00000
   66    -10.27930    2.00000
   67    -10.16376    2.00000
   68    -10.09399    2.00000
   69    -10.05109    2.00000
   70    -10.00431    2.00000
   71     -9.92968    2.00000
   72     -9.87932    2.00000
   73     -9.84931    2.00000
   74     -9.82995    2.00000
   75     -9.79916    2.00000
   76     -9.70677    2.00000
   77     -9.63391    2.00000
   78     -9.46613    2.00000
   79     -9.43971    2.00000
   80     -9.42823    2.00000
   81     -9.31781    2.00000
   82     -9.15778    2.00000
   83     -9.07693    2.00000
   84     -8.90867    2.00000
   85     -8.83953    2.00000
   86     -8.80912    2.00000
   87     -8.76438    2.00000
   88     -8.62548    2.00000
   89     -8.58481    2.00000
   90     -8.46089    2.00000
   91     -8.45728    2.00000
   92     -8.39644    2.00000
   93     -8.35469    2.00000
   94     -8.30155    2.00000
   95     -8.11815    2.00000
   96     -8.09559    2.00000
   97     -8.00584    2.00000
   98     -7.93502    2.00000
   99     -7.85029    2.00000
  100     -7.66145    2.00000
  101     -7.64298    2.00000
  102     -7.59304    2.00000
  103     -7.57712    2.00000
  104     -7.47152    2.00000
  105     -7.25301    2.00000
  106     -7.17266    2.00000
  107     -7.00009    2.00000
  108     -6.59551    2.00000
  109     -6.39447    2.00000
  110     -6.05839    2.00000
  111     -6.05614    2.00000
  112     -6.03576    2.00000
  113     -5.96207    2.00000
  114     -5.93434    2.00000
  115     -5.88001    2.00000
  116     -5.71019    2.00000
  117     -5.62175    2.00000
  118     -5.51539    2.00000
  119     -5.36479    2.00000
  120     -5.23518    2.00000
  121     -5.00344    2.00000
  122     -4.95809    2.00000
  123     -4.84878    2.00000
  124     -4.44062    2.00000
  125     -1.74233    0.00000
  126     -0.98624    0.00000
  127     -0.86610    0.00000
  128     -0.82170    0.00000
  129     -0.68565    0.00000
  130     -0.64124    0.00000
  131     -0.39598    0.00000
  132     -0.32697    0.00000
  133     -0.27175    0.00000
  134     -0.04928    0.00000
  135      0.03596    0.00000
  136      0.09850    0.00000
  137      0.17884    0.00000
  138      0.19530    0.00000
  139      0.23834    0.00000
  140      0.31056    0.00000
  141      0.38424    0.00000
  142      0.40412    0.00000
  143      0.44903    0.00000
  144      0.47080    0.00000
  145      0.52710    0.00000
  146      0.58351    0.00000
  147      0.63742    0.00000
  148      0.67001    0.00000
  149      0.73817    0.00000
  150      0.74573    0.00000
  151      0.77266    0.00000
  152      0.82187    0.00000
  153      0.88130    0.00000

Fermi level: -3.09147

Gap: 2.698 eV
Transition (v -> c):
  (s=0, k=0, n=124, [0.00, 0.00, 0.00]) -> (s=0, k=0, n=125, [0.00, 0.00, 0.00])

Forces in eV/Ang:
  0 H     0.01245   -0.00144    0.00205
  1 H     0.02397   -0.01357    0.00369
  2 H    -0.01211    0.01326    0.00546
  3 H     0.00368   -0.02066   -0.00580
  4 H     0.01459    0.01713   -0.03281
  5 H     0.00948    0.00321    0.01488
  6 H    -0.00029    0.01299   -0.00040
  7 H    -0.00320    0.00691   -0.01315
  8 H     0.00564   -0.01456   -0.03818
  9 H     0.00643    0.02009    0.02097
 10 H    -0.01107   -0.02084    0.01127
 11 H     0.00459    0.01437    0.00956
 12 H    -0.00098   -0.00215    0.00448
 13 H    -0.01297   -0.00711    0.01994
 14 H    -0.00054   -0.00041    0.01141
 15 H     0.00244    0.01106    0.00773
 16 H     0.00745   -0.00399    0.00474
 17 H    -0.01534   -0.00853   -0.00286
 18 H     0.00432   -0.00206   -0.00125
 19 H    -0.00714    0.00572   -0.01283
 20 H     0.00518   -0.00269    0.02031
 21 H     0.00613    0.01138    0.00975
 22 H     0.02626    0.00665    0.01154
 23 H    -0.01136   -0.00965    0.02299
 24 H     0.00095    0.00539   -0.00560
 25 H     0.01094   -0.00643   -0.00142
 26 H    -0.00236    0.00424   -0.01918
 27 H    -0.00844   -0.00159    0.01059
 28 H     0.00438   -0.01278   -0.02155
 29 H     0.01045    0.00488    0.01574
 30 H    -0.00601    0.00157   -0.00718
 31 H     0.00282   -0.00690   -0.00466
 32 H     0.00786    0.00018   -0.00668
 33 H     0.03024    0.00201   -0.01934
 34 H    -0.01033    0.01168    0.01701
 35 H     0.00419    0.00352   -0.01221
 36 H     0.00278    0.00841    0.03272
 37 H    -0.00720    0.00528   -0.01292
 38 H    -0.00025   -0.01346    0.00222
 39 H    -0.03388    0.00727   -0.00704
 40 H     0.00939   -0.00494   -0.01454
 41 O    -0.01674    0.00310    0.00361
 42 O    -0.00209   -0.02216    0.00975
 43 O     0.00867    0.00104   -0.01264
 44 N    -0.00720    0.00705   -0.00791
 45 N    -0.00368   -0.02881    0.01476
 46 O    -0.00021   -0.00870   -0.00429
 47 S     0.02728    0.03401   -0.00846
 48 C    -0.01807    0.00430    0.01101
 49 C    -0.03273    0.01230    0.00457
 50 C     0.00434   -0.00095   -0.01361
 51 C    -0.00102   -0.03514   -0.01383
 52 C    -0.01619   -0.00760    0.02024
 53 C     0.01058    0.00540    0.01035
 54 C     0.00466    0.00041   -0.01099
 55 C     0.00465   -0.01278   -0.00430
 56 C     0.00492    0.00966    0.00798
 57 C    -0.01442    0.00359    0.01845
 58 C    -0.00841    0.01654    0.01327
 59 C     0.00140   -0.02306   -0.01305
 60 C     0.01092    0.01406    0.00182
 61 C     0.01003   -0.00616    0.03251
 62 C    -0.00473   -0.02324    0.00464
 63 C    -0.01152    0.01226   -0.02085
 64 C     0.02370    0.00242   -0.01558
 65 C     0.00714    0.00358    0.00220
 66 C     0.02002   -0.03108    0.02290
 67 C    -0.00221    0.01652    0.03217
 68 C    -0.00140   -0.00312   -0.01160
 69 N    -0.02055    0.01338   -0.01282
 70 N    -0.02391    0.00896   -0.02953
 71 N    -0.00403    0.00562    0.02320
 72 N    -0.03788   -0.00005   -0.02592
 73 N     0.00488   -0.00270   -0.03632
 74 C    -0.00878   -0.00317    0.02266
 75 C     0.00359    0.00229   -0.00212
 76 C    -0.01165    0.00223    0.00488
 77 C    -0.01994   -0.01221    0.01228
 78 C     0.00301    0.00781   -0.00914
 79 C     0.00759    0.00780   -0.00883
 80 C    -0.01098    0.00427    0.00336
 81 C    -0.00396    0.01335    0.00673
 82 C     0.00289    0.00517   -0.00781
 83 C     0.00188   -0.02083    0.01515
 84 C    -0.02402    0.02124    0.00427
 85 C     0.00092   -0.00962    0.01690
 86 C     0.00481   -0.00675   -0.01659
 87 C    -0.01692    0.00113    0.01195
 88 C    -0.00504    0.02869   -0.01155

Timing:                                      incl.     excl.
-------------------------------------------------------------------
Density initialized from wave functions:   471.037   471.034   0.9% |
 Symmetrize density:                         0.003     0.003   0.0% |
Forces:                                   2577.484  2577.484   5.0% |-|
Hamiltonian:                               320.696    11.455   0.0% |
 Atomic:                                    11.383     6.265   0.0% |
  XC Correction:                             5.118     5.118   0.0% |
 Calculate atomic Hamiltonians:            223.824   223.824   0.4% |
 Communicate:                                2.969     2.969   0.0% |
 Initialize Hamiltonian:                     0.004     0.004   0.0% |
 Poisson:                                    0.502     0.502   0.0% |
 XC 3D grid:                                70.558    70.558   0.1% |
LCAO initialization:                        13.239     0.877   0.0% |
 LCAO eigensolver:                           0.273     0.001   0.0% |
  Calculate projections:                     0.003     0.003   0.0% |
  DenseAtomicCorrection:                     0.001     0.001   0.0% |
  Distribute overlap matrix:                 0.228     0.228   0.0% |
  Orbital Layouts:                           0.031     0.031   0.0% |
  Potential matrix:                          0.010     0.010   0.0% |
 LCAO to grid:                              11.722    11.722   0.0% |
 Set positions (LCAO WFS):                   0.366     0.222   0.0% |
  Basic WFS set positions:                   0.006     0.006   0.0% |
  Basis functions set positions:             0.001     0.001   0.0% |
  P tci:                                     0.030     0.030   0.0% |
  ST tci:                                    0.026     0.026   0.0% |
  mktci:                                     0.082     0.082   0.0% |
PWDescriptor:                                0.565     0.565   0.0% |
Redistribute:                                0.133     0.133   0.0% |
SCF-cycle:                               44123.780     2.277   0.0% |
 Davidson:                               36079.023 16960.435  33.1% |------------|
  Apply H:                                2605.553  2592.649   5.1% |-|
   HMM T:                                   12.904    12.904   0.0% |
  Subspace diag:                          4442.150     0.354   0.0% |
   calc_h_matrix:                         3156.137   612.222   1.2% |
    Apply H:                              2543.916  2531.564   4.9% |-|
     HMM T:                                 12.352    12.352   0.0% |
   diagonalize:                             15.688    15.688   0.0% |
   rotate_psi:                            1269.971  1269.971   2.5% ||
  calc. matrices:                         9523.988  4304.163   8.4% |--|
   Apply H:                               5219.825  5193.736  10.1% |---|
    HMM T:                                  26.089    26.089   0.1% |
  diagonalize:                              61.006    61.006   0.1% |
  rotate_psi:                             2485.890  2485.890   4.9% |-|
 Density:                                 4509.379     0.054   0.0% |
  Atomic density matrices:                   6.387     6.387   0.0% |
  Mix:                                    2868.155  2868.155   5.6% |-|
  Multipole moments:                         0.588     0.588   0.0% |
  Pseudo density:                         1634.195  1634.165   3.2% ||
   Symmetrize density:                       0.031     0.031   0.0% |
 Hamiltonian:                             3095.304   107.023   0.2% |
  Atomic:                                  107.466    60.180   0.1% |
   XC Correction:                           47.286    47.286   0.1% |
  Calculate atomic Hamiltonians:          2165.137  2165.137   4.2% |-|
  Communicate:                              25.592    25.592   0.0% |
  Poisson:                                   4.834     4.834   0.0% |
  XC 3D grid:                              685.252   685.252   1.3% ||
 Orthonormalize:                           437.798     0.047   0.0% |
  calc_s_matrix:                            24.010    24.010   0.0% |
  inverse-cholesky:                          1.182     1.182   0.0% |
  projections:                             389.948   389.948   0.8% |
  rotate_psi_s:                             22.611    22.611   0.0% |
Set symmetry:                                0.002     0.002   0.0% |
Other:                                    3679.537  3679.537   7.2% |--|
-------------------------------------------------------------------
Total:                                             51186.473 100.0%

Memory usage: 1.37 GiB
Date: Tue Jul  6 00:32:49 2021
