46
Lattice="23.211100000000002 0.0 0.0 0.0 13.2294 0.0 0.0 0.0 14.4038" Properties=species:S:1:pos:R:3:forces:R:3:magmoms:R:1 energy=-267.54646146121195 dipole="0.29025297976822373 -0.31972188012455477 -0.007375679593010427" magmom=0.0 free_energy=-267.54646146121195 pbc="F F F"
H       16.27697747       6.70517822       4.02661509       0.01094789       0.00450204       0.01107701       0.00000000
H        9.78102062       8.00127742       7.30311183       0.00055966      -0.00746717      -0.00232842       0.00000000
H       13.99471935       6.62727427       5.06853652      -0.01596185      -0.00413602       0.01384508       0.00000000
H       15.82856571       6.95215240       8.96322271       0.00207883       0.00450305       0.01053050       0.00000000
H       13.59967233       6.76763053       8.78720467      -0.00676409       0.00423522       0.01628403       0.00000000
H        6.58269336       9.16548280       8.03616062      -0.01140444       0.01847092      -0.03509867       0.00000000
H       12.94699745       5.21762659      10.49936483      -0.00713047       0.02048317       0.00207026       0.00000000
H       11.76199652       3.91043773      10.39939262      -0.01405916      -0.01108703      -0.01649005       0.00000000
H       12.76149043       4.30940917       8.97770672       0.00121122      -0.01493047       0.01551175       0.00000000
H       18.22177736       6.91473669       9.20856379       0.00321486       0.01159453       0.02229083       0.00000000
H       19.22802925       6.41103026       7.82028872       0.01037127      -0.01418369       0.00709562       0.00000000
H       18.85503942       8.12298071       8.05990145       0.01896513       0.01160341       0.00297570       0.00000000
H        6.06123894       5.44789727       6.06070199      -0.00521194      -0.02427063       0.00586594       0.00000000
H        7.68419708       6.14396683       6.30988679      -0.01112524      -0.00870039       0.02265086       0.00000000
H        6.79450164       5.41533137       7.68387891      -0.00735925       0.00550600      -0.00900242       0.00000000
H        5.48924993       9.16990895       5.93588483      -0.00674011       0.00725065      -0.02236283       0.00000000
H        5.30115319       7.65685332       5.01666259      -0.03562088      -0.01686986      -0.01881618       0.00000000
H        6.93322684       8.32455524       5.30334488       0.00928486       0.00164803      -0.01208080       0.00000000
H        4.68427158       6.64360366       8.61166847       0.01732296      -0.02846547      -0.00730049       0.00000000
H        3.98832481       6.62161964       6.96280418      -0.02416396      -0.00638354      -0.00255179       0.00000000
H        4.15907438       8.16322278       7.84329170      -0.00247026       0.00518648      -0.01755787       0.00000000
O       12.02245791       6.73688834       6.02467192      -0.02106713      -0.02634694       0.00549952       0.00000000
O        7.73455110       9.02690083      10.10248064       0.00938739      -0.00978156      -0.00811389       0.00000000
O        6.67980804       6.71934458      10.09897172      -0.02493800      -0.01407132      -0.00995737       0.00000000
F       18.50081545       6.93192801       5.33388108       0.00250557      -0.00192255       0.00391037       0.00000000
S        9.64721711       5.78497201      10.17285261      -0.01141924      -0.00174355       0.02681210       0.00000000
C       12.26452363       6.67768202       7.23790925      -0.01793155       0.00194245      -0.01214206       0.00000000
C       11.16572821       5.70195411       9.35190732      -0.03590432      -0.00280546      -0.01262343       0.00000000
C        9.04234220       6.98292640       9.07969954       0.00702567       0.00708530       0.00296741       0.00000000
C       16.15521635       6.76067547       5.11159781      -0.00655267       0.00025488      -0.01418852       0.00000000
C        9.96162180       7.28479666       8.10588200       0.00430684       0.02141445      -0.00846292       0.00000000
C       14.88663239       6.71253307       5.68678988      -0.00640168      -0.00303227      -0.00820414       0.00000000
C       15.92376342       6.90167958       7.87172531       0.00951760      -0.00747137       0.00508671       0.00000000
C       17.27407385       6.88383198       5.91959947       0.00180913      -0.01185650      -0.00607064       0.00000000
C       11.17749497       6.55904670       8.25546204      -0.01765465      -0.00184300      -0.01503722       0.00000000
C       14.76790780       6.78061642       7.08380044       0.01141110      -0.00100812      -0.01037868       0.00000000
C       17.20141562       6.95733055       7.31304969       0.00648997       0.00038427      -0.01029367       0.00000000
N       13.53692647       6.71946901       7.76135998      -0.00212756      -0.01461408       0.00735910       0.00000000
N        6.92023832       8.19182610       7.91795925       0.03122686       0.01744560       0.02443431       0.00000000
C       12.21013150       4.73829970       9.82900237      -0.02337942       0.01814097      -0.00475793       0.00000000
C       18.43863773       7.10517524       8.14759768       0.00830931      -0.00038724       0.00434175       0.00000000
C        6.68982004       6.01423637       6.76556098      -0.01792359       0.01746953       0.00452963       0.00000000
C        5.93678764       8.17885372       5.74781884      -0.00560749      -0.00614091      -0.01287827       0.00000000
C        4.63353586       7.18502840       7.65622227      -0.00785822      -0.00057275       0.00095309       0.00000000
C        6.02989950       7.36678028       7.04467432       0.02124781       0.01979152       0.02177858       0.00000000
S        7.48076626       7.75106921       9.43727202       0.00770364      -0.03564749       0.01342439       0.00000000
