
  ___ ___ ___ _ _ _  
 |   |   |_  | | | | 
 | | | | | . | | | | 
 |__ |  _|___|_____|  21.6.0
 |___|_|             

User:   hanguo02@comput119.ghddi.org
Date:   Wed Jul  7 02:52:27 2021
Arch:   x86_64
Pid:    5692
Python: 3.6.8
gpaw:   /home/hanguo02/.local/lib/python3.6/site-packages/gpaw
_gpaw:  /home/hanguo02/.local/lib/python3.6/site-packages/
        _gpaw.cpython-36m-x86_64-linux-gnu.so
ase:    /home/hanguo02/.local/lib/python3.6/site-packages/ase (version 3.22.0)
numpy:  /usr/lib64/python3.6/site-packages/numpy (version 1.16.2)
scipy:  /usr/lib64/python3.6/site-packages/scipy (version 1.2.1)
libxc:  4.2.0
units:  Angstrom and eV
cores: 32
OpenMP: False
OMP_NUM_THREADS: 1

Input parameters:
  mode: {ecut: 400.0,
         gammacentered: False,
         name: pw}
  xc: PBE

System changes: positions, numbers, cell, pbc, initial_charges, initial_magmoms 

Initialize ...

H-setup:
  name: Hydrogen
  id: d65de229564ff8ea4db303e23b6d1ecf
  Z: 1.0
  valence: 1
  core: 0
  charge: 0.0
  file: /home/hanguo02/Software/GPAW/gpaw-setups-0.9.20000/H.PBE.gz
  compensation charges: gauss, rc=0.15, lmax=2
  cutoffs: 0.85(filt), 0.53(core),
  valence states:
                energy  radius
    1s(1.00)    -6.494   0.476
    *s          20.717   0.476
    *p           0.000   0.476

  Using partial waves for H as LCAO basis

O-setup:
  name: Oxygen
  id: 32ecd46bf208036f09c70b0ec9a88b78
  Z: 8.0
  valence: 6
  core: 2
  charge: 0.0
  file: /home/hanguo02/Software/GPAW/gpaw-setups-0.9.20000/O.PBE.gz
  compensation charges: gauss, rc=0.21, lmax=2
  cutoffs: 1.17(filt), 0.83(core),
  valence states:
                energy  radius
    2s(2.00)   -23.961   0.688
    2p(4.00)    -9.029   0.598
    *s           3.251   0.688
    *p          18.182   0.598
    *d           0.000   0.619

  Using partial waves for O as LCAO basis

F-setup:
  name: Fluorine
  id: 9cd46ba2a61e170ad72278be75b55cc0
  Z: 9.0
  valence: 7
  core: 2
  charge: 0.0
  file: /home/hanguo02/Software/GPAW/gpaw-setups-0.9.20000/F.PBE.gz
  compensation charges: gauss, rc=0.20, lmax=2
  cutoffs: 1.14(filt), 0.74(core),
  valence states:
                energy  radius
    2s(2.00)   -29.898   0.635
    2p(5.00)   -11.110   0.635
    *s          -2.687   0.635
    *p          16.102   0.635
    *d           0.000   0.635

  Using partial waves for F as LCAO basis

S-setup:
  name: Sulfur
  id: ca434db9faa07220b7a1d8cb6886b7a9
  Z: 16.0
  valence: 6
  core: 10
  charge: 0.0
  file: /home/hanguo02/Software/GPAW/gpaw-setups-0.9.20000/S.PBE.gz
  compensation charges: gauss, rc=0.24, lmax=2
  cutoffs: 1.77(filt), 1.66(core),
  valence states:
                energy  radius
    3s(2.00)   -17.254   0.974
    3p(4.00)    -7.008   0.979
    *s           9.957   0.974
    *p          20.203   0.979
    *d           0.000   0.900

  Using partial waves for S as LCAO basis

C-setup:
  name: Carbon
  id: 4aa54d4b901d75f77cc0ea3eec22967b
  Z: 6.0
  valence: 4
  core: 2
  charge: 0.0
  file: /home/hanguo02/Software/GPAW/gpaw-setups-0.9.20000/C.PBE.gz
  compensation charges: gauss, rc=0.20, lmax=2
  cutoffs: 1.14(filt), 1.14(core),
  valence states:
                energy  radius
    2s(2.00)   -13.751   0.635
    2p(2.00)    -5.284   0.635
    *s          13.461   0.635
    *p          21.927   0.635
    *d           0.000   0.635

  Using partial waves for C as LCAO basis

N-setup:
  name: Nitrogen
  id: f7500608b86eaa90eef8b1d9a670dc53
  Z: 7.0
  valence: 5
  core: 2
  charge: 0.0
  file: /home/hanguo02/Software/GPAW/gpaw-setups-0.9.20000/N.PBE.gz
  compensation charges: gauss, rc=0.18, lmax=2
  cutoffs: 1.11(filt), 0.96(core),
  valence states:
                energy  radius
    2s(2.00)   -18.583   0.603
    2p(3.00)    -7.089   0.529
    *s           8.629   0.603
    *p          20.123   0.529
    *d           0.000   0.577

  Using partial waves for N as LCAO basis

Reference energy: -51247.291862

Spin-paired calculation

Convergence criteria:
  Maximum total energy change: 0.0005 eV / electron
  Maximum integral of absolute density change: 0.0001 electrons
  Maximum integral of absolute eigenstate change: 4e-08 eV^2
  Maximum number of iterations: 333

Symmetries present (total): 1

  ( 1  0  0)
  ( 0  1  0)
  ( 0  0  1)

1 k-point (Gamma)
1 k-point in the irreducible part of the Brillouin zone
       k-points in crystal coordinates                weights
   0:     0.00000000    0.00000000    0.00000000          1/1

Wave functions: Plane wave expansion
  Cutoff energy: 400.000 eV
  Number of coefficients: 80399 (reduced to 40200)
  Pulay-stress correction: 0.000000 eV/Ang^3 (de/decut=0.000000)
  Using Numpy's FFT
  ScaLapack parameters: grid=1x1, blocksize=None
  Wavefunction extrapolation:
    Improved wavefunction reuse through dual PAW basis 

Occupation numbers: width=0.000 eV 

Eigensolver
   Davidson(niter=2) 

Densities:
  Coarse grid: 108*63*70 grid
  Fine grid: 216*126*140 grid
  Total Charge: 0.000000 

Density mixing:
  Method: separate
  Backend: pulay
  Linear mixing parameter: 0.05
  Mixing with 5 old densities
  Damping of long wave oscillations: 50 

Hamiltonian:
  XC and Coulomb potentials evaluated on a 216*126*140 grid
  Using the PBE Exchange-Correlation functional
 

XC parameters: PBE with 2 nearest neighbor stencil

Memory estimate:
  Process memory now: 1406.19 MiB
  Calculator: 131.23 MiB
    Density: 10.19 MiB
      Arrays: 2.96 MiB
      Localized functions: 6.04 MiB
      Mixer: 1.19 MiB
    Hamiltonian: 2.13 MiB
      Arrays: 1.94 MiB
      XC: 0.00 MiB
      Poisson: 0.00 MiB
      vbar: 0.19 MiB
    Wavefunctions: 118.91 MiB
      Arrays psit_nG: 52.75 MiB
      Eigensolver: 56.39 MiB
      Projections: 0.01 MiB
      Projectors: 0.35 MiB
      PW-descriptor: 9.41 MiB

Total number of cores used: 32
Domain decomposition: 4 x 2 x 4

Number of atoms: 46
Number of atomic orbitals: 121
Number of bands in calculation: 86
Number of valence electrons: 136
Bands to converge: occupied

... initialized

Initializing position-dependent things.

Density initialized from atomic densities
Creating initial wave functions:
  86 bands from LCAO basis set

         .--------------------------------------------------------.  
        /|                                                        |  
       / |                                                        |  
      /  |                                                        |  
     /   |                                                        |  
    /    |                                                        |  
   /     |                                                        |  
  /      |                                                        |  
 *       |               O                                        |  
 |       |           O  S                                         |  
 |       |            H     CS      H             H               |  
 |       |      H      N      C H C   H     H       H             |  
 |       |       C            H C  H  N     C     C H             |  
 |       |     H    CH             C     C     C                  |  
 |       |          CC HH         O                               |  
 |       |         HH                     C     C  F              |  
 |       |                             H     C                    |  
 |       |                                   H                    |  
 |       .--------------------------------------------------------.  
 |      /                                                        /   
 |     /                                                        /    
 |    /                                                        /     
 |   /                                                        /      
 |  /                                                        /       
 | /                                                        /        
 |/                                                        /         
 *--------------------------------------------------------*          

Positions:
   0 H     16.245800    6.659200    4.000000    ( 0.0000,  0.0000,  0.0000)
   1 H      9.707500    8.024500    7.238900    ( 0.0000,  0.0000,  0.0000)
   2 H     14.014200    6.574500    5.013600    ( 0.0000,  0.0000,  0.0000)
   3 H     15.811500    6.954500    8.929400    ( 0.0000,  0.0000,  0.0000)
   4 H     13.545400    6.805300    8.739300    ( 0.0000,  0.0000,  0.0000)
   5 H      6.334400    9.229400    8.176800    ( 0.0000,  0.0000,  0.0000)
   6 H     12.897200    5.272200   10.403800    ( 0.0000,  0.0000,  0.0000)
   7 H     11.662400    4.000000   10.368700    ( 0.0000,  0.0000,  0.0000)
   8 H     12.633400    4.309200    8.933200    ( 0.0000,  0.0000,  0.0000)
   9 H     18.214200    6.771400    9.140800    ( 0.0000,  0.0000,  0.0000)
  10 H     19.211100    6.433600    7.726700    ( 0.0000,  0.0000,  0.0000)
  11 H     18.730900    8.111500    8.093900    ( 0.0000,  0.0000,  0.0000)
  12 H      6.201900    5.503300    6.098500    ( 0.0000,  0.0000,  0.0000)
  13 H      7.755500    6.263900    6.445600    ( 0.0000,  0.0000,  0.0000)
  14 H      6.831600    5.488000    7.739700    ( 0.0000,  0.0000,  0.0000)
  15 H      5.406400    9.149200    5.896000    ( 0.0000,  0.0000,  0.0000)
  16 H      5.367500    7.611500    5.018100    ( 0.0000,  0.0000,  0.0000)
  17 H      6.914700    8.408200    5.355600    ( 0.0000,  0.0000,  0.0000)
  18 H      4.618000    6.595100    8.558600    ( 0.0000,  0.0000,  0.0000)
  19 H      4.000000    6.647500    6.910000    ( 0.0000,  0.0000,  0.0000)
  20 H      4.108900    8.134600    7.865100    ( 0.0000,  0.0000,  0.0000)
  21 O     11.966600    6.773700    5.987300    ( 0.0000,  0.0000,  0.0000)
  22 O      7.730900    8.998800   10.225500    ( 0.0000,  0.0000,  0.0000)
  23 O      6.654700    6.721000   10.009100    ( 0.0000,  0.0000,  0.0000)
  24 F     18.476000    6.886700    5.288500    ( 0.0000,  0.0000,  0.0000)
  25 S      9.718500    6.045900   10.239100    ( 0.0000,  0.0000,  0.0000)
  26 C     12.238300    6.690700    7.178300    ( 0.0000,  0.0000,  0.0000)
  27 C     11.140800    5.805200    9.307000    ( 0.0000,  0.0000,  0.0000)
  28 C      9.060600    7.130600    9.103600    ( 0.0000,  0.0000,  0.0000)
  29 C     16.139600    6.718200    5.079000    ( 0.0000,  0.0000,  0.0000)
  30 C      9.933000    7.351100    8.059000    ( 0.0000,  0.0000,  0.0000)
  31 C     14.873600    6.675600    5.669300    ( 0.0000,  0.0000,  0.0000)
  32 C     15.894800    6.881200    7.847300    ( 0.0000,  0.0000,  0.0000)
  33 C     17.271700    6.839200    5.875200    ( 0.0000,  0.0000,  0.0000)
  34 C     11.161700    6.613700    8.175800    ( 0.0000,  0.0000,  0.0000)
  35 C     14.739800    6.762300    7.057100    ( 0.0000,  0.0000,  0.0000)
  36 C     17.170800    6.909900    7.264300    ( 0.0000,  0.0000,  0.0000)
  37 N     13.503500    6.726700    7.732300    ( 0.0000,  0.0000,  0.0000)
  38 N      6.777100    8.321300    8.022300    ( 0.0000,  0.0000,  0.0000)
  39 C     12.136000    4.792900    9.779900    ( 0.0000,  0.0000,  0.0000)
  40 C     18.401800    7.067700    8.103400    ( 0.0000,  0.0000,  0.0000)
  41 C      6.746600    6.101800    6.838400    ( 0.0000,  0.0000,  0.0000)
  42 C      5.921500    8.190100    5.765900    ( 0.0000,  0.0000,  0.0000)
  43 C      4.613600    7.188200    7.639800    ( 0.0000,  0.0000,  0.0000)
  44 C      6.028200    7.427400    7.099800    ( 0.0000,  0.0000,  0.0000)
  45 S      7.455500    7.795300    9.471500    ( 0.0000,  0.0000,  0.0000)

Unit cell:
           periodic     x           y           z      points  spacing
  1. axis:    no    23.211100    0.000000    0.000000   108     0.2149
  2. axis:    no     0.000000   13.229400    0.000000    63     0.2100
  3. axis:    no     0.000000    0.000000   14.403800    70     0.2058

  Lengths:  23.211100  13.229400  14.403800
  Angles:   90.000000  90.000000  90.000000

Effective grid spacing dv^(1/3) = 0.2102

                     log10-error:    total        iterations:
           time      wfs    density  energy       poisson
iter:   1  02:52:57                -290.044847           
iter:   2  02:53:13  -0.81  -0.72  -286.419703           
iter:   3  02:53:29  -0.68  -0.74  -269.905048           
iter:   4  02:53:44  -1.61  -1.02  -268.916823           
iter:   5  02:54:00  -1.62  -1.10  -267.751839           
iter:   6  02:54:16  -1.30  -1.39  -268.411883           
iter:   7  02:54:31  -2.16  -1.45  -267.420329           
iter:   8  02:54:46  -2.15  -1.71  -267.207387           
iter:   9  02:55:03  -2.71  -2.14  -267.249042           
iter:  10  02:55:19  -2.91  -1.99  -267.180724           
iter:  11  02:55:36  -3.15  -2.54  -267.191845           
iter:  12  02:55:52  -3.20  -2.41  -267.181700           
iter:  13  02:56:09  -4.02  -2.71  -267.179290           
iter:  14  02:56:26  -4.68  -2.95  -267.179518           
iter:  15  02:56:42  -4.57  -2.90  -267.178511           
iter:  16  02:56:59  -5.27  -3.16  -267.178589           
iter:  17  02:57:16  -5.73  -3.19  -267.178474           
iter:  18  02:57:32  -5.16  -3.35  -267.178546           
iter:  19  02:57:48  -5.46  -3.36  -267.178419           
iter:  20  02:58:04  -7.14  -3.64  -267.178419           
iter:  21  02:58:21  -6.66  -3.67  -267.178427           
iter:  22  02:58:38  -6.04  -3.72  -267.178450           
iter:  23  02:58:54  -5.93  -3.65  -267.178437           
iter:  24  02:59:10  -7.68  -3.84  -267.178434           
iter:  25  02:59:26  -6.44  -3.92  -267.178435           
iter:  26  02:59:42  -6.40  -4.11  -267.178437           
iter:  27  02:59:57  -6.47  -4.08  -267.178432           
iter:  28  03:00:14  -7.57  -4.35  -267.178430           

Converged after 28 iterations.

Dipole moment: (0.301581, -0.308367, 0.018221) |e|*Ang

Energy contributions relative to reference atoms: (reference = -51247.291862)

Kinetic:       +206.033437
Potential:     -212.452069
External:        +0.000000
XC:            -260.456833
Entropy (-ST):   +0.000000
Local:           -0.302966
--------------------------
Free energy:   -267.178430
Extrapolated:  -267.178430

 Band  Eigenvalues  Occupancy
    0    -30.56319    2.00000
    1    -27.64854    2.00000
    2    -25.92473    2.00000
    3    -24.84114    2.00000
    4    -23.64075    2.00000
    5    -22.80573    2.00000
    6    -22.15944    2.00000
    7    -21.05113    2.00000
    8    -19.38728    2.00000
    9    -19.17551    2.00000
   10    -18.96593    2.00000
   11    -18.71236    2.00000
   12    -18.08204    2.00000
   13    -17.25352    2.00000
   14    -16.75035    2.00000
   15    -16.61133    2.00000
   16    -16.51924    2.00000
   17    -16.09636    2.00000
   18    -15.24830    2.00000
   19    -15.13957    2.00000
   20    -14.24414    2.00000
   21    -13.93048    2.00000
   22    -13.67270    2.00000
   23    -13.29443    2.00000
   24    -12.92800    2.00000
   25    -12.65577    2.00000
   26    -12.44720    2.00000
   27    -11.93679    2.00000
   28    -11.62020    2.00000
   29    -11.37303    2.00000
   30    -11.01741    2.00000
   31    -10.95404    2.00000
   32    -10.70916    2.00000
   33    -10.63591    2.00000
   34    -10.58350    2.00000
   35    -10.43567    2.00000
   36    -10.34184    2.00000
   37    -10.15234    2.00000
   38    -10.01774    2.00000
   39     -9.96193    2.00000
   40     -9.80132    2.00000
   41     -9.62783    2.00000
   42     -9.59653    2.00000
   43     -9.33547    2.00000
   44     -9.20808    2.00000
   45     -9.14601    2.00000
   46     -9.11131    2.00000
   47     -9.06429    2.00000
   48     -8.88553    2.00000
   49     -8.76321    2.00000
   50     -8.67472    2.00000
   51     -8.48531    2.00000
   52     -8.32187    2.00000
   53     -8.28315    2.00000
   54     -7.94787    2.00000
   55     -7.81024    2.00000
   56     -7.78636    2.00000
   57     -7.47571    2.00000
   58     -7.30595    2.00000
   59     -7.05362    2.00000
   60     -6.95469    2.00000
   61     -6.82469    2.00000
   62     -6.16392    2.00000
   63     -5.87826    2.00000
   64     -5.72451    2.00000
   65     -5.44190    2.00000
   66     -5.37927    2.00000
   67     -4.95170    2.00000
   68     -1.71679    0.00000
   69     -1.17708    0.00000
   70     -0.99525    0.00000
   71     -0.51169    0.00000
   72     -0.20928    0.00000
   73     -0.18146    0.00000
   74     -0.04992    0.00000
   75      0.06373    0.00000
   76      0.29660    0.00000
   77      0.44582    0.00000
   78      0.57883    0.00000
   79      0.60331    0.00000
   80      0.64598    0.00000
   81      0.70792    0.00000
   82      0.76598    0.00000
   83      0.93732    0.00000
   84      0.96055    0.00000
   85      0.97146    0.00000

Fermi level: -3.33424

Gap: 3.235 eV
Transition (v -> c):
  (s=0, k=0, n=67, [0.00, 0.00, 0.00]) -> (s=0, k=0, n=68, [0.00, 0.00, 0.00])

Forces in eV/Ang:
  0 H     0.01164   -0.02234   -0.24650
  1 H    -0.01143    0.09994   -0.22512
  2 H    -0.25163    0.02411    0.12040
  3 H    -0.00473    0.00023    0.27674
  4 H     0.03786    0.02559    0.76080
  5 H    -0.11004    0.51293    0.16623
  6 H     0.32266   -0.04710    0.24929
  7 H    -0.09136   -0.05799    0.16686
  8 H     0.13905   -0.01784   -0.16817
  9 H    -0.07897    0.03663    0.19221
 10 H     0.24157    0.02531   -0.09495
 11 H     0.24553    0.21887    0.02289
 12 H    -0.21009    0.07246   -0.11961
 13 H     0.19658    0.07664   -0.09156
 14 H    -0.00663   -0.08123    0.24309
 15 H    -0.16252    0.19502    0.05074
 16 H    -0.13164   -0.15642   -0.02885
 17 H     0.19596   -0.00916   -0.03837
 18 H     0.13219   -0.09583    0.21255
 19 H    -0.10439   -0.07140   -0.22199
 20 H    -0.07957    0.24519   -0.02458
 21 O     0.35564   -0.17350   -1.11961
 22 O    -0.16093    0.81062    0.59304
 23 O    -0.15575   -0.89509    0.78973
 24 F     0.72066    0.23868   -0.17384
 25 S    -0.08800   -0.75956    0.34825
 26 C    -0.03546    0.24017    0.75231
 27 C     0.29189   -0.00044    0.08625
 28 C    -0.00307    0.18017   -0.83071
 29 C    -0.00923    0.01256    0.41708
 30 C     0.09030   -0.01169    0.07337
 31 C     0.17104   -0.02858   -0.54700
 32 C     0.25838   -0.05420   -0.73414
 33 C    -1.11544   -0.07902    0.15667
 34 C    -1.11758    0.00309    0.89419
 35 C     0.01937    0.04071    0.37839
 36 C     0.02917    0.11723    0.45414
 37 N     0.08394   -0.17855   -1.30252
 38 N     1.31236   -0.80363   -0.23899
 39 C    -0.11558    0.16908   -0.08972
 40 C    -0.15305   -0.23775   -0.00237
 41 C     0.16462    0.05593    0.19210
 42 C     0.24161    0.11742    0.16875
 43 C    -0.09130   -0.25010    0.02286
 44 C    -0.63164    0.02223   -0.35787
 45 S    -0.01756    0.71525   -0.96263

System changes: positions 

Initializing position-dependent things.

Density initialized from wave functions
         .--------------------------------------------------------.  
        /|                                                        |  
       / |                                                        |  
      /  |                                                        |  
     /   |                                                        |  
    /    |                                                        |  
   /     |                                                        |  
  /      |                                                        |  
 *       |               O                                        |  
 |       |           O  S                                         |  
 |       |            H     CS      H             H               |  
 |       |      H      N      C H C   H     H       H             |  
 |       |       C            H C  H  N     C     C H             |  
 |       |     H    CH             C     C     C                  |  
 |       |           C HH         O                               |  
 |       |         HH                     C     C  F              |  
 |       |                             H     C                    |  
 |       |                                   H                    |  
 |       .--------------------------------------------------------.  
 |      /                                                        /   
 |     /                                                        /    
 |    /                                                        /     
 |   /                                                        /      
 |  /                                                        /       
 | /                                                        /        
 |/                                                        /         
 *--------------------------------------------------------*          

Positions:
   0 H     16.245966    6.658881    3.996479    ( 0.0000,  0.0000,  0.0000)
   1 H      9.707337    8.025928    7.235684    ( 0.0000,  0.0000,  0.0000)
   2 H     14.010605    6.574844    5.015320    ( 0.0000,  0.0000,  0.0000)
   3 H     15.811432    6.954503    8.933353    ( 0.0000,  0.0000,  0.0000)
   4 H     13.545941    6.805666    8.750169    ( 0.0000,  0.0000,  0.0000)
   5 H      6.332828    9.236728    8.179175    ( 0.0000,  0.0000,  0.0000)
   6 H     12.901809    5.271527   10.407361    ( 0.0000,  0.0000,  0.0000)
   7 H     11.661095    3.999172   10.371084    ( 0.0000,  0.0000,  0.0000)
   8 H     12.635386    4.308945    8.930798    ( 0.0000,  0.0000,  0.0000)
   9 H     18.213072    6.771923    9.143546    ( 0.0000,  0.0000,  0.0000)
  10 H     19.214551    6.433962    7.725344    ( 0.0000,  0.0000,  0.0000)
  11 H     18.734408    8.114627    8.094227    ( 0.0000,  0.0000,  0.0000)
  12 H      6.198899    5.504335    6.096791    ( 0.0000,  0.0000,  0.0000)
  13 H      7.758308    6.264995    6.444292    ( 0.0000,  0.0000,  0.0000)
  14 H      6.831505    5.486840    7.743173    ( 0.0000,  0.0000,  0.0000)
  15 H      5.404078    9.151986    5.896725    ( 0.0000,  0.0000,  0.0000)
  16 H      5.365619    7.609265    5.017688    ( 0.0000,  0.0000,  0.0000)
  17 H      6.917499    8.408069    5.355052    ( 0.0000,  0.0000,  0.0000)
  18 H      4.619888    6.593731    8.561636    ( 0.0000,  0.0000,  0.0000)
  19 H      3.998509    6.646480    6.906829    ( 0.0000,  0.0000,  0.0000)
  20 H      4.107763    8.138103    7.864749    ( 0.0000,  0.0000,  0.0000)
  21 O     11.971681    6.771221    5.971306    ( 0.0000,  0.0000,  0.0000)
  22 O      7.728601    9.010380   10.233972    ( 0.0000,  0.0000,  0.0000)
  23 O      6.652475    6.708213   10.020382    ( 0.0000,  0.0000,  0.0000)
  24 F     18.486295    6.890110    5.286017    ( 0.0000,  0.0000,  0.0000)
  25 S      9.717243    6.035049   10.244075    ( 0.0000,  0.0000,  0.0000)
  26 C     12.237793    6.694131    7.189047    ( 0.0000,  0.0000,  0.0000)
  27 C     11.144970    5.805194    9.308232    ( 0.0000,  0.0000,  0.0000)
  28 C      9.060556    7.133174    9.091733    ( 0.0000,  0.0000,  0.0000)
  29 C     16.139468    6.718379    5.084958    ( 0.0000,  0.0000,  0.0000)
  30 C      9.934290    7.350933    8.060048    ( 0.0000,  0.0000,  0.0000)
  31 C     14.876043    6.675192    5.661486    ( 0.0000,  0.0000,  0.0000)
  32 C     15.898491    6.880426    7.836812    ( 0.0000,  0.0000,  0.0000)
  33 C     17.255765    6.838071    5.877438    ( 0.0000,  0.0000,  0.0000)
  34 C     11.145735    6.613744    8.188574    ( 0.0000,  0.0000,  0.0000)
  35 C     14.740077    6.762882    7.062506    ( 0.0000,  0.0000,  0.0000)
  36 C     17.171217    6.911575    7.270788    ( 0.0000,  0.0000,  0.0000)
  37 N     13.504699    6.724149    7.713693    ( 0.0000,  0.0000,  0.0000)
  38 N      6.795848    8.309820    8.018886    ( 0.0000,  0.0000,  0.0000)
  39 C     12.134349    4.795315    9.778618    ( 0.0000,  0.0000,  0.0000)
  40 C     18.399614    7.064304    8.103366    ( 0.0000,  0.0000,  0.0000)
  41 C      6.748952    6.102599    6.841144    ( 0.0000,  0.0000,  0.0000)
  42 C      5.924952    8.191777    5.768311    ( 0.0000,  0.0000,  0.0000)
  43 C      4.612296    7.184627    7.640127    ( 0.0000,  0.0000,  0.0000)
  44 C      6.019177    7.427718    7.094688    ( 0.0000,  0.0000,  0.0000)
  45 S      7.455249    7.805518    9.457748    ( 0.0000,  0.0000,  0.0000)

Unit cell:
           periodic     x           y           z      points  spacing
  1. axis:    no    23.211100    0.000000    0.000000   108     0.2149
  2. axis:    no     0.000000   13.229400    0.000000    63     0.2100
  3. axis:    no     0.000000    0.000000   14.403800    70     0.2058

  Lengths:  23.211100  13.229400  14.403800
  Angles:   90.000000  90.000000  90.000000

Effective grid spacing dv^(1/3) = 0.2102

                     log10-error:    total        iterations:
           time      wfs    density  energy       poisson
iter:   1  03:00:47  -2.04         -267.403893           
iter:   2  03:01:04  -3.47  -2.12  -267.381073           
iter:   3  03:01:20  -2.66  -2.16  -267.309404           
iter:   4  03:01:37  -4.04  -2.51  -267.308833           
iter:   5  03:01:53  -4.07  -2.53  -267.303627           
iter:   6  03:02:10  -3.65  -2.72  -267.302340           
iter:   7  03:02:24  -4.40  -2.84  -267.300440           
iter:   8  03:02:41  -5.18  -3.14  -267.300221           
iter:   9  03:02:55  -5.33  -3.36  -267.300263           
iter:  10  03:03:12  -5.29  -3.41  -267.300208           
iter:  11  03:03:29  -6.45  -3.75  -267.300189           
iter:  12  03:03:45  -7.13  -3.81  -267.300190           
iter:  13  03:04:02  -6.39  -3.86  -267.300198           
iter:  14  03:04:18  -6.69  -4.07  -267.300192           
iter:  15  03:04:33  -8.05  -4.26  -267.300192           

Converged after 15 iterations.

Dipole moment: (0.254946, -0.291054, 0.008911) |e|*Ang

Energy contributions relative to reference atoms: (reference = -51247.291862)

Kinetic:       +197.826805
Potential:     -206.419668
External:        +0.000000
XC:            -258.407524
Entropy (-ST):   +0.000000
Local:           -0.299804
--------------------------
Free energy:   -267.300192
Extrapolated:  -267.300192

 Band  Eigenvalues  Occupancy
    0    -30.20571    2.00000
    1    -27.38657    2.00000
    2    -25.66140    2.00000
    3    -24.56087    2.00000
    4    -23.60923    2.00000
    5    -22.88294    2.00000
    6    -22.17003    2.00000
    7    -21.13516    2.00000
    8    -19.47629    2.00000
    9    -19.21552    2.00000
   10    -19.01566    2.00000
   11    -18.76479    2.00000
   12    -18.12791    2.00000
   13    -17.26927    2.00000
   14    -16.77170    2.00000
   15    -16.63694    2.00000
   16    -16.56714    2.00000
   17    -16.13343    2.00000
   18    -15.33767    2.00000
   19    -15.07929    2.00000
   20    -14.25441    2.00000
   21    -13.92482    2.00000
   22    -13.59091    2.00000
   23    -13.25322    2.00000
   24    -12.82250    2.00000
   25    -12.70387    2.00000
   26    -12.43221    2.00000
   27    -11.92869    2.00000
   28    -11.58332    2.00000
   29    -11.40956    2.00000
   30    -10.99461    2.00000
   31    -10.82061    2.00000
   32    -10.67982    2.00000
   33    -10.63938    2.00000
   34    -10.58753    2.00000
   35    -10.39019    2.00000
   36    -10.31519    2.00000
   37    -10.15319    2.00000
   38    -10.00869    2.00000
   39     -9.94674    2.00000
   40     -9.74221    2.00000
   41     -9.66560    2.00000
   42     -9.53676    2.00000
   43     -9.41005    2.00000
   44     -9.20136    2.00000
   45     -9.17660    2.00000
   46     -9.07405    2.00000
   47     -9.01027    2.00000
   48     -8.83269    2.00000
   49     -8.74584    2.00000
   50     -8.71352    2.00000
   51     -8.44757    2.00000
   52     -8.33423    2.00000
   53     -8.27493    2.00000
   54     -7.90745    2.00000
   55     -7.87891    2.00000
   56     -7.81074    2.00000
   57     -7.44865    2.00000
   58     -7.17905    2.00000
   59     -7.02469    2.00000
   60     -6.94219    2.00000
   61     -6.72602    2.00000
   62     -6.16397    2.00000
   63     -5.93532    2.00000
   64     -5.81303    2.00000
   65     -5.47748    2.00000
   66     -5.32198    2.00000
   67     -4.96821    2.00000
   68     -1.76155    0.00000
   69     -1.21067    0.00000
   70     -0.96528    0.00000
   71     -0.56242    0.00000
   72     -0.25003    0.00000
   73     -0.21537    0.00000
   74     -0.07360    0.00000
   75      0.03491    0.00000
   76      0.27973    0.00000
   77      0.44767    0.00000
   78      0.55293    0.00000
   79      0.58481    0.00000
   80      0.61674    0.00000
   81      0.69648    0.00000
   82      0.73893    0.00000
   83      0.88811    0.00000
   84      0.91143    0.00000
   85      0.95486    0.00000

Fermi level: -3.36488

Gap: 3.207 eV
Transition (v -> c):
  (s=0, k=0, n=67, [0.00, 0.00, 0.00]) -> (s=0, k=0, n=68, [0.00, 0.00, 0.00])

Forces in eV/Ang:
  0 H     0.02385   -0.00174    0.07237
  1 H     0.07217   -0.00332   -0.12114
  2 H    -0.25109    0.02086    0.06814
  3 H     0.02646   -0.03182   -0.16257
  4 H     0.02089   -0.06901   -0.43380
  5 H     0.36825   -0.37277    0.01440
  6 H     0.19449   -0.10970    0.14320
  7 H    -0.04572    0.04286    0.08093
  8 H     0.08416    0.02673   -0.07741
  9 H    -0.06515    0.03694    0.14631
 10 H     0.14800    0.05050   -0.07291
 11 H     0.15647   -0.00956    0.02265
 12 H    -0.09366    0.12146   -0.00551
 13 H     0.12539    0.08006   -0.05639
 14 H    -0.01321   -0.02612    0.20188
 15 H    -0.09425    0.11027    0.03187
 16 H    -0.01715   -0.03228    0.09520
 17 H     0.18145   -0.01457   -0.01241
 18 H     0.13301   -0.07678    0.16172
 19 H    -0.08169   -0.05499   -0.17338
 20 H    -0.02382    0.07413   -0.04870
 21 O     0.51595   -0.24927    0.55251
 22 O    -0.24774    0.27358    0.09325
 23 O     0.59131    0.24476    0.15213
 24 F    -0.19568    0.18305    0.17690
 25 S    -0.23745   -0.43809    0.02253
 26 C    -0.62090    0.23978   -1.02722
 27 C    -0.07087   -0.07119    0.41974
 28 C    -0.18677   -0.09769   -0.15429
 29 C    -0.20299   -0.05420   -0.45687
 30 C    -0.16342    0.29442   -0.23267
 31 C    -0.13368    0.00031    0.14993
 32 C    -0.03982    0.01075    0.35271
 33 C     0.40408    0.04687    0.26397
 34 C    -0.01634    0.03105    0.13369
 35 C     0.14497   -0.03104   -0.74418
 36 C     0.11225    0.04548   -0.10045
 37 N    -0.00851   -0.02740    0.73549
 38 N     0.43145    0.48385   -0.50977
 39 C     0.15365    0.00491    0.00567
 40 C     0.08665   -0.00234    0.09989
 41 C    -0.01050   -0.05780   -0.01495
 42 C    -0.00387    0.12187   -0.04435
 43 C    -0.20967   -0.03301    0.07732
 44 C    -0.15048   -0.21765   -0.17919
 45 S    -0.35780   -0.24538    0.51017

System changes: positions 

Initializing position-dependent things.

Density initialized from wave functions
         .--------------------------------------------------------.  
        /|                                                        |  
       / |                                                        |  
      /  |                                                        |  
     /   |                                                        |  
    /    |                                                        |  
   /     |                                                        |  
  /      |                                                        |  
 *       |               O                                        |  
 |       |           O  S                                         |  
 |       |            H     S       H             H               |  
 |       |      H      N      C H C   H     H       H             |  
 |       |       C            H C  H  N     C     C H             |  
 |       |     H    CH             C     C     C                  |  
 |       |           C HH          O                              |  
 |       |         HH                     C     C  F              |  
 |       |                             H     C                    |  
 |       |                                   H                    |  
 |       .--------------------------------------------------------.  
 |      /                                                        /   
 |     /                                                        /    
 |    /                                                        /     
 |   /                                                        /      
 |  /                                                        /       
 | /                                                        /        
 |/                                                        /         
 *--------------------------------------------------------*          

Positions:
   0 H     16.246310    6.658771    3.996413    ( 0.0000,  0.0000,  0.0000)
   1 H      9.708193    8.026279    7.233286    ( 0.0000,  0.0000,  0.0000)
   2 H     14.006480    6.575200    5.016644    ( 0.0000,  0.0000,  0.0000)
   3 H     15.811744    6.954107    8.932411    ( 0.0000,  0.0000,  0.0000)
   4 H     13.546351    6.804904    8.747741    ( 0.0000,  0.0000,  0.0000)
   5 H      6.336995    9.234088    8.180008    ( 0.0000,  0.0000,  0.0000)
   6 H     12.905507    5.269972   10.410130    ( 0.0000,  0.0000,  0.0000)
   7 H     11.660165    3.999479   10.372751    ( 0.0000,  0.0000,  0.0000)
   8 H     12.636984    4.309209    8.929170    ( 0.0000,  0.0000,  0.0000)
   9 H     18.211948    6.772529    9.146129    ( 0.0000,  0.0000,  0.0000)
  10 H     19.217349    6.434692    7.724060    ( 0.0000,  0.0000,  0.0000)
  11 H     18.737327    8.115368    8.094600    ( 0.0000,  0.0000,  0.0000)
  12 H      6.196903    5.506137    6.096252    ( 0.0000,  0.0000,  0.0000)
  13 H      7.760647    6.266296    6.443228    ( 0.0000,  0.0000,  0.0000)
  14 H      6.831314    5.486194    7.746650    ( 0.0000,  0.0000,  0.0000)
  15 H      5.402262    9.154130    5.897322    ( 0.0000,  0.0000,  0.0000)
  16 H      5.364888    7.608247    5.018764    ( 0.0000,  0.0000,  0.0000)
  17 H      6.920536    8.407851    5.354746    ( 0.0000,  0.0000,  0.0000)
  18 H      4.622069    6.592395    8.564492    ( 0.0000,  0.0000,  0.0000)
  19 H      3.997078    6.645512    6.903790    ( 0.0000,  0.0000,  0.0000)
  20 H      4.107153    8.139993    7.864044    ( 0.0000,  0.0000,  0.0000)
  21 O     11.979523    6.767426    5.973805    ( 0.0000,  0.0000,  0.0000)
  22 O      7.724874    9.016984   10.237468    ( 0.0000,  0.0000,  0.0000)
  23 O      6.659248    6.707751   10.025387    ( 0.0000,  0.0000,  0.0000)
  24 F     18.486684    6.893334    5.287543    ( 0.0000,  0.0000,  0.0000)
  25 S      9.713931    6.026591   10.245726    ( 0.0000,  0.0000,  0.0000)
  26 C     12.229899    6.698070    7.179175    ( 0.0000,  0.0000,  0.0000)
  27 C     11.145232    5.804303    9.313814    ( 0.0000,  0.0000,  0.0000)
  28 C      9.058211    7.132662    9.086540    ( 0.0000,  0.0000,  0.0000)
  29 C     16.136896    6.717752    5.080892    ( 0.0000,  0.0000,  0.0000)
  30 C      9.932604    7.354565    8.057431    ( 0.0000,  0.0000,  0.0000)
  31 C     14.875046    6.675083    5.661208    ( 0.0000,  0.0000,  0.0000)
  32 C     15.899010    6.880347    7.838332    ( 0.0000,  0.0000,  0.0000)
  33 C     17.256427    6.838346    5.881351    ( 0.0000,  0.0000,  0.0000)
  34 C     11.141137    6.614144    8.193759    ( 0.0000,  0.0000,  0.0000)
  35 C     14.741964    6.762654    7.054698    ( 0.0000,  0.0000,  0.0000)
  36 C     17.172733    6.912604    7.271319    ( 0.0000,  0.0000,  0.0000)
  37 N     13.504923    6.723105    7.717758    ( 0.0000,  0.0000,  0.0000)
  38 N      6.806396    8.312704    8.011579    ( 0.0000,  0.0000,  0.0000)
  39 C     12.135814    4.796041    9.778336    ( 0.0000,  0.0000,  0.0000)
  40 C     18.400094    7.063340    8.104604    ( 0.0000,  0.0000,  0.0000)
  41 C      6.749468    6.102097    6.841713    ( 0.0000,  0.0000,  0.0000)
  42 C      5.925853    8.193761    5.768420    ( 0.0000,  0.0000,  0.0000)
  43 C      4.609318    7.183232    7.641182    ( 0.0000,  0.0000,  0.0000)
  44 C      6.014814    7.425086    7.091043    ( 0.0000,  0.0000,  0.0000)
  45 S      7.450711    7.805265    9.460336    ( 0.0000,  0.0000,  0.0000)

Unit cell:
           periodic     x           y           z      points  spacing
  1. axis:    no    23.211100    0.000000    0.000000   108     0.2149
  2. axis:    no     0.000000   13.229400    0.000000    63     0.2100
  3. axis:    no     0.000000    0.000000   14.403800    70     0.2058

  Lengths:  23.211100  13.229400  14.403800
  Angles:   90.000000  90.000000  90.000000

Effective grid spacing dv^(1/3) = 0.2102

                     log10-error:    total        iterations:
           time      wfs    density  energy       poisson
iter:   1  03:05:03  -2.65         -267.378881           
iter:   2  03:05:19  -4.02  -2.52  -267.373573           
iter:   3  03:05:34  -3.24  -2.55  -267.360328           
iter:   4  03:05:51  -4.44  -2.83  -267.359181           
iter:   5  03:06:08  -4.56  -2.86  -267.358550           
iter:   6  03:06:24  -4.28  -3.03  -267.357420           
iter:   7  03:06:40  -5.45  -3.31  -267.357341           
iter:   8  03:06:55  -5.70  -3.43  -267.357236           
iter:   9  03:07:12  -6.41  -3.77  -267.357234           
iter:  10  03:07:28  -5.96  -3.82  -267.357240           
iter:  11  03:07:43  -7.27  -4.06  -267.357232           
iter:  12  03:08:00  -7.10  -4.14  -267.357230           
iter:  13  03:08:15  -7.30  -4.16  -267.357232           
iter:  14  03:08:32  -6.97  -4.33  -267.357231           
iter:  15  03:08:48  -8.52  -4.45  -267.357231           

Converged after 15 iterations.

Dipole moment: (0.208728, -0.299595, -0.009011) |e|*Ang

Energy contributions relative to reference atoms: (reference = -51247.291862)

Kinetic:       +196.482412
Potential:     -205.540868
External:        +0.000000
XC:            -258.001726
Entropy (-ST):   +0.000000
Local:           -0.297049
--------------------------
Free energy:   -267.357231
Extrapolated:  -267.357231

 Band  Eigenvalues  Occupancy
    0    -30.17490    2.00000
    1    -27.37453    2.00000
    2    -25.81728    2.00000
    3    -24.56808    2.00000
    4    -23.56016    2.00000
    5    -22.85425    2.00000
    6    -22.13568    2.00000
    7    -21.10089    2.00000
    8    -19.47745    2.00000
    9    -19.19127    2.00000
   10    -19.01131    2.00000
   11    -18.72949    2.00000
   12    -18.07104    2.00000
   13    -17.25373    2.00000
   14    -16.75519    2.00000
   15    -16.64095    2.00000
   16    -16.58032    2.00000
   17    -16.08028    2.00000
   18    -15.27784    2.00000
   19    -15.07349    2.00000
   20    -14.19990    2.00000
   21    -13.91075    2.00000
   22    -13.55285    2.00000
   23    -13.24051    2.00000
   24    -12.79580    2.00000
   25    -12.65246    2.00000
   26    -12.40464    2.00000
   27    -11.92487    2.00000
   28    -11.57818    2.00000
   29    -11.39821    2.00000
   30    -10.97743    2.00000
   31    -10.79329    2.00000
   32    -10.68437    2.00000
   33    -10.62020    2.00000
   34    -10.59240    2.00000
   35    -10.37903    2.00000
   36    -10.31862    2.00000
   37    -10.14715    2.00000
   38    -10.01211    2.00000
   39     -9.96613    2.00000
   40     -9.71342    2.00000
   41     -9.66258    2.00000
   42     -9.55468    2.00000
   43     -9.40195    2.00000
   44     -9.19336    2.00000
   45     -9.17570    2.00000
   46     -9.06966    2.00000
   47     -9.00789    2.00000
   48     -8.83836    2.00000
   49     -8.73442    2.00000
   50     -8.69660    2.00000
   51     -8.47489    2.00000
   52     -8.35507    2.00000
   53     -8.29698    2.00000
   54     -7.92896    2.00000
   55     -7.90683    2.00000
   56     -7.80338    2.00000
   57     -7.45870    2.00000
   58     -7.18046    2.00000
   59     -7.02288    2.00000
   60     -6.94583    2.00000
   61     -6.71585    2.00000
   62     -6.17053    2.00000
   63     -5.91728    2.00000
   64     -5.85557    2.00000
   65     -5.49644    2.00000
   66     -5.37654    2.00000
   67     -4.94271    2.00000
   68     -1.74943    0.00000
   69     -1.17719    0.00000
   70     -0.95962    0.00000
   71     -0.55016    0.00000
   72     -0.26018    0.00000
   73     -0.20447    0.00000
   74     -0.07755    0.00000
   75      0.04386    0.00000
   76      0.29318    0.00000
   77      0.45824    0.00000
   78      0.55605    0.00000
   79      0.59080    0.00000
   80      0.61731    0.00000
   81      0.69720    0.00000
   82      0.74039    0.00000
   83      0.85096    0.00000
   84      0.90155    0.00000
   85      0.94664    0.00000

Fermi level: -3.34607

Gap: 3.193 eV
Transition (v -> c):
  (s=0, k=0, n=67, [0.00, 0.00, 0.00]) -> (s=0, k=0, n=68, [0.00, 0.00, 0.00])

Forces in eV/Ang:
  0 H     0.03068   -0.00780   -0.04207
  1 H     0.05524    0.05833   -0.18374
  2 H    -0.19295    0.02240    0.08503
  3 H     0.00411   -0.02887   -0.10084
  4 H     0.02905   -0.04038   -0.20846
  5 H     0.33037   -0.32667    0.00788
  6 H     0.14318   -0.13134    0.09428
  7 H    -0.00057    0.08111    0.03794
  8 H     0.06020    0.04993   -0.04356
  9 H    -0.04766    0.03783    0.10527
 10 H     0.10307    0.06481   -0.03895
 11 H     0.12775   -0.07314    0.02971
 12 H    -0.06103    0.10134    0.01339
 13 H     0.04268    0.06543   -0.02005
 14 H    -0.01715    0.01654    0.12595
 15 H    -0.05846    0.06846    0.02362
 16 H     0.01178    0.01520    0.10286
 17 H     0.12171   -0.02025    0.01522
 18 H     0.10708   -0.05167    0.10831
 19 H    -0.06759   -0.03673   -0.11040
 20 H    -0.01517    0.02145   -0.04875
 21 O     0.23214   -0.15269   -0.32599
 22 O    -0.29448   -0.02791   -0.06546
 23 O     0.34213    0.08088    0.23552
 24 F    -0.19566    0.16668    0.19150
 25 S    -0.31200   -0.26147   -0.12140
 26 C    -0.03374    0.07759    0.25853
 27 C    -0.11186    0.02449    0.26958
 28 C    -0.24041   -0.16360    0.06175
 29 C     0.05437   -0.01472   -0.09278
 30 C    -0.13061    0.12815   -0.04472
 31 C    -0.15503   -0.02225   -0.15934
 32 C    -0.06460   -0.00231    0.08808
 33 C     0.18566    0.02737   -0.10199
 34 C     0.10035    0.07287   -0.08541
 35 C     0.01533   -0.00136   -0.07576
 36 C     0.03716    0.03177    0.03485
 37 N    -0.18589   -0.03245    0.07580
 38 N     0.31333    0.33763   -0.45764
 39 C     0.19802   -0.07523    0.09388
 40 C     0.15957    0.05356    0.10150
 41 C    -0.00852   -0.08756   -0.03471
 42 C    -0.06212    0.07826   -0.10681
 43 C    -0.16938   -0.00361    0.06006
 44 C     0.03905   -0.09570   -0.05983
 45 S     0.02355    0.17839    0.49372

System changes: positions 

Initializing position-dependent things.

Density initialized from wave functions
         .--------------------------------------------------------.  
        /|                                                        |  
       / |                                                        |  
      /  |                                                        |  
     /   |                                                        |  
    /    |                                                        |  
   /     |                                                        |  
  /      |                                                        |  
 *       |               O                                        |  
 |       |           O  S                                         |  
 |       |            H     S       H             H               |  
 |       |      H      N      C H C   H     H       H             |  
 |       |       C            H C  H  N     C     C H             |  
 |       |     H    CH             C     C     C                  |  
 |       |           C HH          O                              |  
 |       |         HH                     C     C  F              |  
 |       |                             H     C                    |  
 |       |                                   H                    |  
 |       .--------------------------------------------------------.  
 |      /                                                        /   
 |     /                                                        /    
 |    /                                                        /     
 |   /                                                        /      
 |  /                                                        /       
 | /                                                        /        
 |/                                                        /         
 *--------------------------------------------------------*          

Positions:
   0 H     16.247288    6.658460    3.994851    ( 0.0000,  0.0000,  0.0000)
   1 H      9.710065    8.028084    7.226798    ( 0.0000,  0.0000,  0.0000)
   2 H     13.998373    6.576032    5.019852    ( 0.0000,  0.0000,  0.0000)
   3 H     15.812069    6.953155    8.930078    ( 0.0000,  0.0000,  0.0000)
   4 H     13.547406    6.803470    8.742984    ( 0.0000,  0.0000,  0.0000)
   5 H      6.347344    9.225958    8.181224    ( 0.0000,  0.0000,  0.0000)
   6 H     12.912338    5.265724   10.414976    ( 0.0000,  0.0000,  0.0000)
   7 H     11.659210    4.001387   10.375289    ( 0.0000,  0.0000,  0.0000)
   8 H     12.639898    4.310483    8.926534    ( 0.0000,  0.0000,  0.0000)
   9 H     18.209824    6.773929    9.150940    ( 0.0000,  0.0000,  0.0000)
  10 H     19.222395    6.436764    7.721967    ( 0.0000,  0.0000,  0.0000)
  11 H     18.743026    8.114833    8.095606    ( 0.0000,  0.0000,  0.0000)
  12 H      6.193493    5.509970    6.095849    ( 0.0000,  0.0000,  0.0000)
  13 H      7.763886    6.268948    6.441735    ( 0.0000,  0.0000,  0.0000)
  14 H      6.830768    5.485867    7.752740    ( 0.0000,  0.0000,  0.0000)
  15 H      5.399161    9.157786    5.898434    ( 0.0000,  0.0000,  0.0000)
  16 H      5.364270    7.607423    5.021825    ( 0.0000,  0.0000,  0.0000)
  17 H      6.926077    8.407209    5.354755    ( 0.0000,  0.0000,  0.0000)
  18 H      4.626466    6.589977    8.569631    ( 0.0000,  0.0000,  0.0000)
  19 H      3.994212    6.643772    6.898439    ( 0.0000,  0.0000,  0.0000)
  20 H      4.106152    8.142522    7.862351    ( 0.0000,  0.0000,  0.0000)
  21 O     11.991654    6.760655    5.965900    ( 0.0000,  0.0000,  0.0000)
  22 O      7.715034    9.023427   10.240135    ( 0.0000,  0.0000,  0.0000)
  23 O      6.671793    6.707097   10.036385    ( 0.0000,  0.0000,  0.0000)
  24 F     18.484323    6.900121    5.292588    ( 0.0000,  0.0000,  0.0000)
  25 S      9.704197    6.012383   10.245132    ( 0.0000,  0.0000,  0.0000)
  26 C     12.222886    6.703440    7.178950    ( 0.0000,  0.0000,  0.0000)
  27 C     11.143633    5.804149    9.324378    ( 0.0000,  0.0000,  0.0000)
  28 C      9.051024    7.129045    9.081907    ( 0.0000,  0.0000,  0.0000)
  29 C     16.136070    6.716963    5.076620    ( 0.0000,  0.0000,  0.0000)
  30 C      9.928591    7.360229    8.054558    ( 0.0000,  0.0000,  0.0000)
  31 C     14.871219    6.674437    5.656171    ( 0.0000,  0.0000,  0.0000)
  32 C     15.898583    6.880107    7.839764    ( 0.0000,  0.0000,  0.0000)
  33 C     17.258467    6.838985    5.882513    ( 0.0000,  0.0000,  0.0000)
  34 C     11.137158    6.616084    8.198008    ( 0.0000,  0.0000,  0.0000)
  35 C     14.743827    6.762541    7.047786    ( 0.0000,  0.0000,  0.0000)
  36 C     17.174815    6.914389    7.273570    ( 0.0000,  0.0000,  0.0000)
  37 N     13.501162    6.721149    7.719584    ( 0.0000,  0.0000,  0.0000)
  38 N      6.824685    8.320590    7.995128    ( 0.0000,  0.0000,  0.0000)
  39 C     12.141092    4.795332    9.779993    ( 0.0000,  0.0000,  0.0000)
  40 C     18.403660    7.063220    8.107825    ( 0.0000,  0.0000,  0.0000)
  41 C      6.750067    6.099888    6.841835    ( 0.0000,  0.0000,  0.0000)
  42 C      5.925742    8.197328    5.766526    ( 0.0000,  0.0000,  0.0000)
  43 C      4.603008    7.181475    7.643397    ( 0.0000,  0.0000,  0.0000)
  44 C      6.010791    7.420951    7.086023    ( 0.0000,  0.0000,  0.0000)
  45 S      7.447641    7.810703    9.471088    ( 0.0000,  0.0000,  0.0000)

Unit cell:
           periodic     x           y           z      points  spacing
  1. axis:    no    23.211100    0.000000    0.000000   108     0.2149
  2. axis:    no     0.000000   13.229400    0.000000    63     0.2100
  3. axis:    no     0.000000    0.000000   14.403800    70     0.2058

  Lengths:  23.211100  13.229400  14.403800
  Angles:   90.000000  90.000000  90.000000

Effective grid spacing dv^(1/3) = 0.2102

                     log10-error:    total        iterations:
           time      wfs    density  energy       poisson
iter:   1  03:09:18  -2.50         -267.422723           
iter:   2  03:09:34  -3.76  -2.52  -267.421462           
iter:   3  03:09:50  -3.54  -2.54  -267.412501           
iter:   4  03:10:07  -4.75  -2.84  -267.412421           
iter:   5  03:10:23  -4.40  -2.87  -267.412467           
iter:   6  03:10:38  -4.40  -3.01  -267.411537           
iter:   7  03:10:55  -5.45  -3.33  -267.411456           
iter:   8  03:11:12  -5.70  -3.47  -267.411422           
iter:   9  03:11:28  -6.35  -3.81  -267.411426           
iter:  10  03:11:44  -6.06  -3.80  -267.411419           
iter:  11  03:12:00  -7.31  -4.18  -267.411415           
iter:  12  03:12:15  -7.42  -4.28  -267.411415           

Converged after 12 iterations.

Dipole moment: (0.194001, -0.299653, 0.009749) |e|*Ang

Energy contributions relative to reference atoms: (reference = -51247.291862)

Kinetic:       +193.095646
Potential:     -203.088301
External:        +0.000000
XC:            -257.113896
Entropy (-ST):   +0.000000
Local:           -0.304864
--------------------------
Free energy:   -267.411415
Extrapolated:  -267.411415

 Band  Eigenvalues  Occupancy
    0    -30.24401    2.00000
    1    -27.43035    2.00000
    2    -25.75418    2.00000
    3    -24.65765    2.00000
    4    -23.46872    2.00000
    5    -22.77298    2.00000
    6    -22.08537    2.00000
    7    -21.06053    2.00000
    8    -19.44539    2.00000
    9    -19.15418    2.00000
   10    -18.99652    2.00000
   11    -18.70574    2.00000
   12    -18.03171    2.00000
   13    -17.23313    2.00000
   14    -16.74477    2.00000
   15    -16.62496    2.00000
   16    -16.57135    2.00000
   17    -16.04189    2.00000
   18    -15.21724    2.00000
   19    -15.06448    2.00000
   20    -14.13221    2.00000
   21    -13.89477    2.00000
   22    -13.52958    2.00000
   23    -13.21115    2.00000
   24    -12.80556    2.00000
   25    -12.61452    2.00000
   26    -12.35040    2.00000
   27    -11.91563    2.00000
   28    -11.57625    2.00000
   29    -11.38053    2.00000
   30    -10.95878    2.00000
   31    -10.80755    2.00000
   32    -10.68014    2.00000
   33    -10.59108    2.00000
   34    -10.58888    2.00000
   35    -10.37469    2.00000
   36    -10.33606    2.00000
   37    -10.12765    2.00000
   38    -10.01017    2.00000
   39     -9.95736    2.00000
   40     -9.70418    2.00000
   41     -9.65314    2.00000
   42     -9.54281    2.00000
   43     -9.37659    2.00000
   44     -9.20157    2.00000
   45     -9.15375    2.00000
   46     -9.06746    2.00000
   47     -9.01521    2.00000
   48     -8.83160    2.00000
   49     -8.72455    2.00000
   50     -8.68899    2.00000
   51     -8.46578    2.00000
   52     -8.36584    2.00000
   53     -8.29816    2.00000
   54     -7.95878    2.00000
   55     -7.89973    2.00000
   56     -7.80073    2.00000
   57     -7.48867    2.00000
   58     -7.21312    2.00000
   59     -7.04664    2.00000
   60     -6.91436    2.00000
   61     -6.74517    2.00000
   62     -6.16882    2.00000
   63     -5.90172    2.00000
   64     -5.88889    2.00000
   65     -5.50791    2.00000
   66     -5.37301    2.00000
   67     -4.92578    2.00000
   68     -1.76076    0.00000
   69     -1.16717    0.00000
   70     -0.96138    0.00000
   71     -0.54495    0.00000
   72     -0.26970    0.00000
   73     -0.19498    0.00000
   74     -0.09754    0.00000
   75      0.04785    0.00000
   76      0.30863    0.00000
   77      0.47334    0.00000
   78      0.56942    0.00000
   79      0.60019    0.00000
   80      0.62152    0.00000
   81      0.69722    0.00000
   82      0.74050    0.00000
   83      0.84695    0.00000
   84      0.88835    0.00000
   85      0.94241    0.00000

Fermi level: -3.34327

Gap: 3.165 eV
Transition (v -> c):
  (s=0, k=0, n=67, [0.00, 0.00, 0.00]) -> (s=0, k=0, n=68, [0.00, 0.00, 0.00])

Forces in eV/Ang:
  0 H     0.04634   -0.01064   -0.12615
  1 H     0.03539    0.08825   -0.17651
  2 H    -0.20427    0.01402    0.02719
  3 H    -0.03166   -0.02268    0.01175
  4 H     0.03605   -0.00938    0.04787
  5 H     0.13168   -0.03830    0.00729
  6 H     0.10610   -0.13693    0.05490
  7 H     0.05538    0.07587    0.01010
  8 H     0.02872    0.06894   -0.00039
  9 H    -0.00013    0.04384    0.03510
 10 H     0.05212    0.06883    0.01316
 11 H     0.11280   -0.07378    0.04375
 12 H    -0.03858    0.03380    0.00243
 13 H    -0.07468    0.02694    0.02811
 14 H    -0.02092    0.07217    0.00325
 15 H    -0.00929    0.01224    0.00601
 16 H     0.00266    0.03732    0.03814
 17 H    -0.00718   -0.02684    0.05112
 18 H     0.05147   -0.00160    0.01318
 19 H    -0.03612   -0.00119    0.00318
 20 H    -0.02441   -0.02047   -0.03531
 21 O     0.09134   -0.09785   -0.02431
 22 O    -0.18823    0.11883    0.08245
 23 O     0.04684    0.00242    0.31286
 24 F    -0.01486    0.13699    0.09818
 25 S    -0.32143   -0.09122   -0.26830
 26 C     0.26718   -0.05873    0.14231
 27 C    -0.05518    0.14763   -0.03760
 28 C    -0.16785   -0.14363    0.16997
 29 C     0.12315    0.00854    0.15808
 30 C    -0.08328   -0.09219    0.18454
 31 C     0.03667   -0.01202   -0.16604
 32 C    -0.01859   -0.01201   -0.18199
 33 C    -0.14618    0.02692   -0.12714
 34 C     0.03772    0.07099   -0.06397
 35 C    -0.21312   -0.00441    0.29022
 36 C    -0.03952    0.00893    0.02655
 37 N    -0.07921   -0.00532   -0.37358
 38 N     0.33776   -0.14907   -0.21379
 39 C     0.11673   -0.06342    0.13511
 40 C     0.13032    0.04298    0.08575
 41 C     0.03168   -0.05758   -0.00283
 42 C    -0.03530    0.02117   -0.09690
 43 C    -0.01208   -0.01722    0.00695
 44 C     0.19817    0.12878    0.07852
 45 S     0.22129    0.07690   -0.07882

System changes: positions 

Initializing position-dependent things.

Density initialized from wave functions
         .--------------------------------------------------------.  
        /|                                                        |  
       / |                                                        |  
      /  |                                                        |  
     /   |                                                        |  
    /    |                                                        |  
   /     |                                                        |  
  /      |                                                        |  
 *       |               O                                        |  
 |       |           O  S                                         |  
 |       |            H     S       H             H               |  
 |       |      H      N      C H C   H     H       H             |  
 |       |       C            H C  H  N     C     C H             |  
 |       |     H    CH             C     C     C                  |  
 |       |           C HH          O                              |  
 |       |         HH                     C     C  F              |  
 |       |                             H     C                    |  
 |       |                                   H                    |  
 |       .--------------------------------------------------------.  
 |      /                                                        /   
 |     /                                                        /    
 |    /                                                        /     
 |   /                                                        /      
 |  /                                                        /       
 | /                                                        /        
 |/                                                        /         
 *--------------------------------------------------------*          

Positions:
   0 H     16.248841    6.658055    3.991633    ( 0.0000,  0.0000,  0.0000)
   1 H      9.712063    8.030827    7.219157    ( 0.0000,  0.0000,  0.0000)
   2 H     13.988519    6.576864    5.022473    ( 0.0000,  0.0000,  0.0000)
   3 H     15.811732    6.952066    8.928734    ( 0.0000,  0.0000,  0.0000)
   4 H     13.548810    6.802240    8.740401    ( 0.0000,  0.0000,  0.0000)
   5 H      6.356771    9.220132    8.182309    ( 0.0000,  0.0000,  0.0000)
   6 H     12.919382    5.260265   10.419630    ( 0.0000,  0.0000,  0.0000)
   7 H     11.659447    4.003935   10.377456    ( 0.0000,  0.0000,  0.0000)
   8 H     12.642574    4.312588    8.924547    ( 0.0000,  0.0000,  0.0000)
   9 H     18.208317    6.775748    9.155085    ( 0.0000,  0.0000,  0.0000)
  10 H     19.227096    6.439452    7.720660    ( 0.0000,  0.0000,  0.0000)
  11 H     18.749314    8.113452    8.097130    ( 0.0000,  0.0000,  0.0000)
  12 H      6.190202    5.513269    6.095458    ( 0.0000,  0.0000,  0.0000)
  13 H      7.764978    6.271328    6.441111    ( 0.0000,  0.0000,  0.0000)
  14 H      6.830003    5.486869    7.757257    ( 0.0000,  0.0000,  0.0000)
  15 H      5.396689    9.160728    5.899347    ( 0.0000,  0.0000,  0.0000)
  16 H      5.363688    7.607312    5.024508    ( 0.0000,  0.0000,  0.0000)
  17 H      6.929915    8.406268    5.355647    ( 0.0000,  0.0000,  0.0000)
  18 H      4.630563    6.588202    8.573612    ( 0.0000,  0.0000,  0.0000)
  19 H      3.991488    6.642490    6.894605    ( 0.0000,  0.0000,  0.0000)
  20 H      4.104908    8.144162    7.860524    ( 0.0000,  0.0000,  0.0000)
  21 O     12.002942    6.753712    5.963766    ( 0.0000,  0.0000,  0.0000)
  22 O      7.704979    9.032068   10.244754    ( 0.0000,  0.0000,  0.0000)
  23 O      6.681877    6.706848   10.050037    ( 0.0000,  0.0000,  0.0000)
  24 F     18.483051    6.907537    5.297630    ( 0.0000,  0.0000,  0.0000)
  25 S      9.691667    5.999984   10.240210    ( 0.0000,  0.0000,  0.0000)
  26 C     12.220998    6.706641    7.176044    ( 0.0000,  0.0000,  0.0000)
  27 C     11.141897    5.806614    9.331163    ( 0.0000,  0.0000,  0.0000)
  28 C      9.043238    7.124240    9.080750    ( 0.0000,  0.0000,  0.0000)
  29 C     16.136810    6.716450    5.075674    ( 0.0000,  0.0000,  0.0000)
  30 C      9.924223    7.362762    8.055649    ( 0.0000,  0.0000,  0.0000)
  31 C     14.869754    6.673865    5.650629    ( 0.0000,  0.0000,  0.0000)
  32 C     15.898244    6.879730    7.837678    ( 0.0000,  0.0000,  0.0000)
  33 C     17.256991    6.839982    5.882545    ( 0.0000,  0.0000,  0.0000)
  34 C     11.133972    6.618582    8.201157    ( 0.0000,  0.0000,  0.0000)
  35 C     14.741291    6.762264    7.046353    ( 0.0000,  0.0000,  0.0000)
  36 C     17.175724    6.915871    7.275241    ( 0.0000,  0.0000,  0.0000)
  37 N     13.498055    6.719678    7.715309    ( 0.0000,  0.0000,  0.0000)
  38 N      6.844889    8.322682    7.979776    ( 0.0000,  0.0000,  0.0000)
  39 C     12.146563    4.794095    9.783329    ( 0.0000,  0.0000,  0.0000)
  40 C     18.408147    7.063574    8.111636    ( 0.0000,  0.0000,  0.0000)
  41 C      6.751215    6.097479    6.842096    ( 0.0000,  0.0000,  0.0000)
  42 C      5.925413    8.200347    5.763756    ( 0.0000,  0.0000,  0.0000)
  43 C      4.598457    7.179664    7.645059    ( 0.0000,  0.0000,  0.0000)
  44 C      6.010884    7.420371    7.083571    ( 0.0000,  0.0000,  0.0000)
  45 S      7.448349    7.814242    9.475705    ( 0.0000,  0.0000,  0.0000)

Unit cell:
           periodic     x           y           z      points  spacing
  1. axis:    no    23.211100    0.000000    0.000000   108     0.2149
  2. axis:    no     0.000000   13.229400    0.000000    63     0.2100
  3. axis:    no     0.000000    0.000000   14.403800    70     0.2058

  Lengths:  23.211100  13.229400  14.403800
  Angles:   90.000000  90.000000  90.000000

Effective grid spacing dv^(1/3) = 0.2102

                     log10-error:    total        iterations:
           time      wfs    density  energy       poisson
iter:   1  03:12:46  -2.64         -267.449508           
iter:   2  03:13:02  -3.92  -2.60  -267.448448           
iter:   3  03:13:18  -3.73  -2.61  -267.441027           
iter:   4  03:13:35  -4.86  -2.93  -267.440937           
iter:   5  03:13:50  -4.65  -2.97  -267.440838           
iter:   6  03:14:07  -4.58  -3.12  -267.440299           
iter:   7  03:14:23  -5.44  -3.34  -267.440213           
iter:   8  03:14:40  -5.62  -3.52  -267.440187           
iter:   9  03:14:55  -6.14  -3.89  -267.440180           
iter:  10  03:15:12  -6.45  -3.88  -267.440174           
iter:  11  03:15:30  -7.64  -4.31  -267.440174           

Converged after 11 iterations.

Dipole moment: (0.186778, -0.303874, 0.009604) |e|*Ang

Energy contributions relative to reference atoms: (reference = -51247.291862)

Kinetic:       +190.421940
Potential:     -201.185198
External:        +0.000000
XC:            -256.373107
Entropy (-ST):   +0.000000
Local:           -0.303809
--------------------------
Free energy:   -267.440174
Extrapolated:  -267.440174

 Band  Eigenvalues  Occupancy
    0    -30.25756    2.00000
    1    -27.40651    2.00000
    2    -25.81045    2.00000
    3    -24.64546    2.00000
    4    -23.46458    2.00000
    5    -22.73750    2.00000
    6    -22.06893    2.00000
    7    -21.03935    2.00000
    8    -19.42577    2.00000
    9    -19.12780    2.00000
   10    -18.97383    2.00000
   11    -18.69634    2.00000
   12    -18.02023    2.00000
   13    -17.23278    2.00000
   14    -16.73575    2.00000
   15    -16.61705    2.00000
   16    -16.55987    2.00000
   17    -16.03511    2.00000
   18    -15.20943    2.00000
   19    -15.04759    2.00000
   20    -14.10271    2.00000
   21    -13.88071    2.00000
   22    -13.52050    2.00000
   23    -13.17796    2.00000
   24    -12.79942    2.00000
   25    -12.60105    2.00000
   26    -12.30762    2.00000
   27    -11.90192    2.00000
   28    -11.56677    2.00000
   29    -11.36706    2.00000
   30    -10.95172    2.00000
   31    -10.80603    2.00000
   32    -10.67917    2.00000
   33    -10.59231    2.00000
   34    -10.56836    2.00000
   35    -10.35297    2.00000
   36    -10.33447    2.00000
   37    -10.12276    2.00000
   38    -10.02546    2.00000
   39     -9.96426    2.00000
   40     -9.69104    2.00000
   41     -9.63036    2.00000
   42     -9.54336    2.00000
   43     -9.36003    2.00000
   44     -9.21254    2.00000
   45     -9.14974    2.00000
   46     -9.06947    2.00000
   47     -8.99955    2.00000
   48     -8.83492    2.00000
   49     -8.73613    2.00000
   50     -8.69070    2.00000
   51     -8.47042    2.00000
   52     -8.38087    2.00000
   53     -8.30970    2.00000
   54     -7.96854    2.00000
   55     -7.88289    2.00000
   56     -7.78862    2.00000
   57     -7.49505    2.00000
   58     -7.20334    2.00000
   59     -7.06115    2.00000
   60     -6.91757    2.00000
   61     -6.73164    2.00000
   62     -6.17525    2.00000
   63     -5.93183    2.00000
   64     -5.89665    2.00000
   65     -5.52649    2.00000
   66     -5.39227    2.00000
   67     -4.91197    2.00000
   68     -1.76751    0.00000
   69     -1.16899    0.00000
   70     -0.95031    0.00000
   71     -0.54674    0.00000
   72     -0.27499    0.00000
   73     -0.19103    0.00000
   74     -0.11130    0.00000
   75      0.04895    0.00000
   76      0.30991    0.00000
   77      0.47639    0.00000
   78      0.57265    0.00000
   79      0.60401    0.00000
   80      0.62120    0.00000
   81      0.69596    0.00000
   82      0.73660    0.00000
   83      0.84497    0.00000
   84      0.87763    0.00000
   85      0.93827    0.00000

Fermi level: -3.33974

Gap: 3.144 eV
Transition (v -> c):
  (s=0, k=0, n=67, [0.00, 0.00, 0.00]) -> (s=0, k=0, n=68, [0.00, 0.00, 0.00])

Forces in eV/Ang:
  0 H     0.05281   -0.00395   -0.04786
  1 H     0.04059   -0.01091    0.00125
  2 H    -0.10407    0.01500    0.01641
  3 H    -0.04134   -0.02389   -0.00366
  4 H     0.00973   -0.00950   -0.02333
  5 H     0.11026   -0.03170   -0.03249
  6 H     0.08851   -0.11869    0.03992
  7 H     0.06930    0.02823    0.01795
  8 H    -0.00031    0.07766    0.04723
  9 H     0.03779    0.04105   -0.00189
 10 H     0.02318    0.05358    0.04941
 11 H     0.10485   -0.03632    0.05346
 12 H    -0.01501   -0.01166    0.00435
 13 H    -0.10609   -0.00680    0.04350
 14 H    -0.01767    0.08603   -0.05511
 15 H     0.02949   -0.02672   -0.01349
 16 H    -0.02064    0.02970   -0.02927
 17 H    -0.07912   -0.01744    0.04989
 18 H     0.00673    0.03398   -0.05337
 19 H     0.00698    0.02533    0.08430
 20 H    -0.02680   -0.06155   -0.02046
 21 O    -0.11676   -0.03984   -0.24435
 22 O    -0.11139   -0.01777   -0.01608
 23 O    -0.06976    0.07434    0.23220
 24 F     0.04254    0.09670    0.03505
 25 S    -0.24222   -0.04032   -0.28473
 26 C     0.32055   -0.15888    0.40869
 27 C     0.02751    0.10143   -0.13859
 28 C    -0.05925   -0.08913    0.13941
 29 C     0.04782    0.00144    0.02306
 30 C    -0.05682   -0.08043    0.10300
 31 C    -0.02420   -0.00403    0.03067
 32 C    -0.06924   -0.00997   -0.11843
 33 C    -0.10686    0.05219    0.00377
 34 C     0.04190    0.08638   -0.08399
 35 C    -0.11973   -0.01792    0.10291
 36 C    -0.02342   -0.00019   -0.02398
 37 N     0.02284    0.03792   -0.14847
 38 N     0.13839   -0.18307   -0.01548
 39 C    -0.00867    0.05017    0.05870
 40 C     0.01602    0.01218    0.01433
 41 C    -0.01116    0.02170   -0.00320
 42 C     0.00202   -0.00889   -0.00225
 43 C     0.14820    0.02185   -0.02310
 44 C     0.23397    0.14287    0.08775
 45 S     0.24288    0.06370   -0.09121

System changes: positions 

Initializing position-dependent things.

Density initialized from wave functions
         .--------------------------------------------------------.  
        /|                                                        |  
       / |                                                        |  
      /  |                                                        |  
     /   |                                                        |  
    /    |                                                        |  
   /     |                                                        |  
  /      |                                                        |  
 *       |               O                                        |  
 |       |           O  S                                         |  
 |       |            H     S       H             H               |  
 |       |      H      N      C H C   H     H       H             |  
 |       |       C            H C  H  N     C     C H             |  
 |       |     H    CH             C     C     C                  |  
 |       |           C HH          O                              |  
 |       |         HH                     C     C  F              |  
 |       |                             H     C                    |  
 |       |                                   H                    |  
 |       .--------------------------------------------------------.  
 |      /                                                        /   
 |     /                                                        /    
 |    /                                                        /     
 |   /                                                        /      
 |  /                                                        /       
 | /                                                        /        
 |/                                                        /         
 *--------------------------------------------------------*          

Positions:
   0 H     16.250592    6.657808    3.989701    ( 0.0000,  0.0000,  0.0000)
   1 H      9.713946    8.031663    7.215684    ( 0.0000,  0.0000,  0.0000)
   2 H     13.981532    6.577579    5.024138    ( 0.0000,  0.0000,  0.0000)
   3 H     15.810895    6.951036    8.927517    ( 0.0000,  0.0000,  0.0000)
   4 H     13.549639    6.801288    8.737276    ( 0.0000,  0.0000,  0.0000)
   5 H      6.364147    9.215788    8.182185    ( 0.0000,  0.0000,  0.0000)
   6 H     12.924775    5.255329   10.422900    ( 0.0000,  0.0000,  0.0000)
   7 H     11.660689    4.005637   10.379044    ( 0.0000,  0.0000,  0.0000)
   8 H     12.643997    4.315048    8.924344    ( 0.0000,  0.0000,  0.0000)
   9 H     18.208187    6.777431    9.157325    ( 0.0000,  0.0000,  0.0000)
  10 H     19.230068    6.441771    7.720800    ( 0.0000,  0.0000,  0.0000)
  11 H     18.754556    8.112227    8.098882    ( 0.0000,  0.0000,  0.0000)
  12 H      6.188177    5.514848    6.095337    ( 0.0000,  0.0000,  0.0000)
  13 H      7.763891    6.272472    6.441464    ( 0.0000,  0.0000,  0.0000)
  14 H      6.829301    5.488825    7.758839    ( 0.0000,  0.0000,  0.0000)
  15 H      5.395874    9.161857    5.899580    ( 0.0000,  0.0000,  0.0000)
  16 H      5.362941    7.607672    5.025354    ( 0.0000,  0.0000,  0.0000)
  17 H      6.930655    8.405497    5.356912    ( 0.0000,  0.0000,  0.0000)
  18 H      4.632878    6.587838    8.574837    ( 0.0000,  0.0000,  0.0000)
  19 H      3.990203    6.642245    6.893999    ( 0.0000,  0.0000,  0.0000)
  20 H      4.103773    8.143957    7.859201    ( 0.0000,  0.0000,  0.0000)
  21 O     12.007256    6.749138    5.960055    ( 0.0000,  0.0000,  0.0000)
  22 O      7.697792    9.036407   10.246752    ( 0.0000,  0.0000,  0.0000)
  23 O      6.686865    6.709031   10.060760    ( 0.0000,  0.0000,  0.0000)
  24 F     18.482769    6.913159    5.300972    ( 0.0000,  0.0000,  0.0000)
  25 S      9.681008    5.992310   10.232872    ( 0.0000,  0.0000,  0.0000)
  26 C     12.223953    6.705812    7.178934    ( 0.0000,  0.0000,  0.0000)
  27 C     11.141563    5.809253    9.332858    ( 0.0000,  0.0000,  0.0000)
  28 C      9.038274    7.120261    9.082158    ( 0.0000,  0.0000,  0.0000)
  29 C     16.137158    6.716051    5.073894    ( 0.0000,  0.0000,  0.0000)
  30 C      9.920741    7.363419    8.057106    ( 0.0000,  0.0000,  0.0000)
  31 C     14.868159    6.673557    5.649614    ( 0.0000,  0.0000,  0.0000)
  32 C     15.896632    6.879418    7.835854    ( 0.0000,  0.0000,  0.0000)
  33 C     17.255743    6.841582    5.883825    ( 0.0000,  0.0000,  0.0000)
  34 C     11.133192    6.621395    8.201525    ( 0.0000,  0.0000,  0.0000)
  35 C     14.738600    6.761680    7.044714    ( 0.0000,  0.0000,  0.0000)
  36 C     17.176106    6.916667    7.275105    ( 0.0000,  0.0000,  0.0000)
  37 N     13.497303    6.719699    7.713555    ( 0.0000,  0.0000,  0.0000)
  38 N      6.857603    8.321731    7.971318    ( 0.0000,  0.0000,  0.0000)
  39 C     12.149110    4.794700    9.785762    ( 0.0000,  0.0000,  0.0000)
  40 C     18.410504    7.063870    8.113804    ( 0.0000,  0.0000,  0.0000)
  41 C      6.751428    6.096761    6.842121    ( 0.0000,  0.0000,  0.0000)
  42 C      5.925382    8.201888    5.762518    ( 0.0000,  0.0000,  0.0000)
  43 C      4.598733    7.179195    7.645577    ( 0.0000,  0.0000,  0.0000)
  44 C      6.014729    7.422040    7.083488    ( 0.0000,  0.0000,  0.0000)
  45 S      7.451896    7.816042    9.477630    ( 0.0000,  0.0000,  0.0000)

Unit cell:
           periodic     x           y           z      points  spacing
  1. axis:    no    23.211100    0.000000    0.000000   108     0.2149
  2. axis:    no     0.000000   13.229400    0.000000    63     0.2100
  3. axis:    no     0.000000    0.000000   14.403800    70     0.2058

  Lengths:  23.211100  13.229400  14.403800
  Angles:   90.000000  90.000000  90.000000

Effective grid spacing dv^(1/3) = 0.2102

                     log10-error:    total        iterations:
           time      wfs    density  energy       poisson
iter:   1  03:16:00  -2.99         -267.460638           
iter:   2  03:16:19  -4.30  -2.72  -267.459546           
iter:   3  03:16:35  -3.77  -2.74  -267.455881           
iter:   4  03:16:51  -4.96  -3.06  -267.455722           
iter:   5  03:17:07  -5.20  -3.05  -267.455718           
iter:   6  03:17:24  -4.58  -3.11  -267.455279           
iter:   7  03:17:40  -6.10  -3.45  -267.455196           
iter:   8  03:17:56  -6.05  -3.68  -267.455176           
iter:   9  03:18:12  -7.39  -4.01  -267.455176           
iter:  10  03:18:27  -6.46  -4.03  -267.455180           
iter:  11  03:18:43  -7.33  -4.12  -267.455181           
iter:  12  03:19:00  -6.49  -4.14  -267.455175           
iter:  13  03:19:15  -7.75  -4.46  -267.455174           

Converged after 13 iterations.

Dipole moment: (0.205006, -0.307182, 0.015410) |e|*Ang

Energy contributions relative to reference atoms: (reference = -51247.291862)

Kinetic:       +189.080655
Potential:     -200.202654
External:        +0.000000
XC:            -256.033333
Entropy (-ST):   +0.000000
Local:           -0.299842
--------------------------
Free energy:   -267.455174
Extrapolated:  -267.455174

 Band  Eigenvalues  Occupancy
    0    -30.25796    2.00000
    1    -27.38926    2.00000
    2    -25.75479    2.00000
    3    -24.62328    2.00000
    4    -23.48781    2.00000
    5    -22.73524    2.00000
    6    -22.07661    2.00000
    7    -21.04563    2.00000
    8    -19.41920    2.00000
    9    -19.12917    2.00000
   10    -18.96695    2.00000
   11    -18.69900    2.00000
   12    -18.03707    2.00000
   13    -17.24484    2.00000
   14    -16.74211    2.00000
   15    -16.61158    2.00000
   16    -16.54534    2.00000
   17    -16.05328    2.00000
   18    -15.22481    2.00000
   19    -15.06599    2.00000
   20    -14.10600    2.00000
   21    -13.87808    2.00000
   22    -13.54289    2.00000
   23    -13.16279    2.00000
   24    -12.79541    2.00000
   25    -12.61537    2.00000
   26    -12.29578    2.00000
   27    -11.89529    2.00000
   28    -11.57084    2.00000
   29    -11.36051    2.00000
   30    -10.95405    2.00000
   31    -10.80818    2.00000
   32    -10.67988    2.00000
   33    -10.59794    2.00000
   34    -10.55838    2.00000
   35    -10.35376    2.00000
   36    -10.33002    2.00000
   37    -10.11938    2.00000
   38    -10.02239    2.00000
   39     -9.96196    2.00000
   40     -9.68292    2.00000
   41     -9.62520    2.00000
   42     -9.53553    2.00000
   43     -9.36351    2.00000
   44     -9.21035    2.00000
   45     -9.15784    2.00000
   46     -9.07121    2.00000
   47     -9.00067    2.00000
   48     -8.83670    2.00000
   49     -8.75158    2.00000
   50     -8.69086    2.00000
   51     -8.46336    2.00000
   52     -8.38186    2.00000
   53     -8.30712    2.00000
   54     -7.96476    2.00000
   55     -7.86050    2.00000
   56     -7.79554    2.00000
   57     -7.49531    2.00000
   58     -7.18876    2.00000
   59     -7.07074    2.00000
   60     -6.91579    2.00000
   61     -6.71957    2.00000
   62     -6.17657    2.00000
   63     -5.94740    2.00000
   64     -5.90000    2.00000
   65     -5.52968    2.00000
   66     -5.38731    2.00000
   67     -4.92861    2.00000
   68     -1.78019    0.00000
   69     -1.19239    0.00000
   70     -0.96564    0.00000
   71     -0.54803    0.00000
   72     -0.27275    0.00000
   73     -0.19144    0.00000
   74     -0.12256    0.00000
   75      0.04636    0.00000
   76      0.30660    0.00000
   77      0.47333    0.00000
   78      0.57428    0.00000
   79      0.60483    0.00000
   80      0.62145    0.00000
   81      0.69476    0.00000
   82      0.73327    0.00000
   83      0.84508    0.00000
   84      0.87251    0.00000
   85      0.93660    0.00000

Fermi level: -3.35440

Gap: 3.148 eV
Transition (v -> c):
  (s=0, k=0, n=67, [0.00, 0.00, 0.00]) -> (s=0, k=0, n=68, [0.00, 0.00, 0.00])

Forces in eV/Ang:
  0 H     0.05122   -0.00200   -0.03410
  1 H     0.02899   -0.05623    0.09811
  2 H    -0.01195    0.01913    0.04751
  3 H    -0.04843   -0.02474   -0.01591
  4 H     0.01696   -0.00374    0.04084
  5 H     0.11734   -0.04487   -0.05731
  6 H     0.06775   -0.09252    0.02968
  7 H     0.06299    0.00670    0.01983
  8 H    -0.01525    0.07577    0.06919
  9 H     0.04959    0.03309   -0.01250
 10 H     0.01120    0.03407    0.06266
 11 H     0.09055   -0.01308    0.05340
 12 H    -0.00480   -0.02172    0.01155
 13 H    -0.07276   -0.02385    0.02971
 14 H    -0.01457    0.07331   -0.05670
 15 H     0.04159   -0.03126   -0.01841
 16 H    -0.02182    0.02662   -0.04027
 17 H    -0.07257    0.00073    0.02212
 18 H    -0.00505    0.04495   -0.06965
 19 H     0.05269    0.04022    0.11552
 20 H    -0.01576   -0.07388   -0.01025
 21 O    -0.09699   -0.04389    0.14078
 22 O    -0.03108   -0.04457   -0.06655
 23 O    -0.06768    0.15385    0.13469
 24 F     0.04365    0.06213    0.01504
 25 S    -0.10886   -0.09477   -0.21287
 26 C     0.11502   -0.12554   -0.03707
 27 C     0.01972    0.05790   -0.11834
 28 C     0.04003   -0.01142   -0.00052
 29 C    -0.02225    0.00814    0.08735
 30 C    -0.00413   -0.05565    0.03005
 31 C    -0.04039   -0.01359   -0.06937
 32 C    -0.03913   -0.01060   -0.08903
 33 C    -0.07798    0.05126   -0.07933
 34 C     0.02399    0.07383   -0.02748
 35 C     0.00160   -0.01200    0.09675
 36 C    -0.05896    0.00849    0.06862
 37 N     0.08027    0.03364   -0.08013
 38 N     0.01526   -0.12307    0.10821
 39 C    -0.05559    0.10116    0.00601
 40 C    -0.04396    0.00715   -0.03393
 41 C    -0.04690    0.06337   -0.01274
 42 C     0.00527   -0.03414    0.05126
 43 C     0.19742    0.05421   -0.03079
 44 C     0.15236    0.08054    0.04694
 45 S     0.09177   -0.02292   -0.03010

System changes: positions 

Initializing position-dependent things.

Density initialized from wave functions
         .--------------------------------------------------------.  
        /|                                                        |  
       / |                                                        |  
      /  |                                                        |  
     /   |                                                        |  
    /    |                                                        |  
   /     |                                                        |  
  /      |                                                        |  
 *       |               O                                        |  
 |       |           O  S                                         |  
 |       |            H    CS       H             H               |  
 |       |      H      N      C H C   H     H       H             |  
 |       |       C            H C  H  N     C     C H             |  
 |       |     H    CH             C     C     C                  |  
 |       |           C HH          O                              |  
 |       |         HH                     C     C  F              |  
 |       |                             H     C                    |  
 |       |                                   H                    |  
 |       .--------------------------------------------------------.  
 |      /                                                        /   
 |     /                                                        /    
 |    /                                                        /     
 |   /                                                        /      
 |  /                                                        /       
 | /                                                        /        
 |/                                                        /         
 *--------------------------------------------------------*          

Positions:
[...]
   30    -10.98565    2.00000
   31    -10.82032    2.00000
   32    -10.67907    2.00000
   33    -10.60841    2.00000
   34    -10.52986    2.00000
   35    -10.36347    2.00000
   36    -10.31774    2.00000
   37    -10.13295    2.00000
   38    -10.03229    2.00000
   39     -9.97737    2.00000
   40     -9.68019    2.00000
   41     -9.66504    2.00000
   42     -9.57152    2.00000
   43     -9.37788    2.00000
   44     -9.18048    2.00000
   45     -9.16627    2.00000
   46     -9.09404    2.00000
   47     -9.01084    2.00000
   48     -8.84514    2.00000
   49     -8.77166    2.00000
   50     -8.71795    2.00000
   51     -8.46303    2.00000
   52     -8.36015    2.00000
   53     -8.29790    2.00000
   54     -7.96015    2.00000
   55     -7.87453    2.00000
   56     -7.81485    2.00000
   57     -7.48487    2.00000
   58     -7.13029    2.00000
   59     -7.02470    2.00000
   60     -6.93979    2.00000
   61     -6.67118    2.00000
   62     -6.19099    2.00000
   63     -5.95560    2.00000
   64     -5.93156    2.00000
   65     -5.49040    2.00000
   66     -5.40896    2.00000
   67     -4.94163    2.00000
   68     -1.75587    0.00000
   69     -1.20145    0.00000
   70     -0.97358    0.00000
   71     -0.57006    0.00000
   72     -0.25678    0.00000
   73     -0.18850    0.00000
   74     -0.13931    0.00000
   75      0.04435    0.00000
   76      0.30457    0.00000
   77      0.48224    0.00000
   78      0.56911    0.00000
   79      0.61994    0.00000
   80      0.65691    0.00000
   81      0.70236    0.00000
   82      0.74638    0.00000
   83      0.84043    0.00000
   84      0.89934    0.00000
   85      0.94086    0.00000

Fermi level: -3.34875

Gap: 3.186 eV
Transition (v -> c):
  (s=0, k=0, n=67, [0.00, 0.00, 0.00]) -> (s=0, k=0, n=68, [0.00, 0.00, 0.00])

Forces in eV/Ang:
  0 H     0.01528    0.00292   -0.00141
  1 H    -0.00751   -0.00033   -0.01285
  2 H    -0.01637   -0.00502    0.01516
  3 H     0.00447    0.00313    0.00724
  4 H    -0.00752    0.00377    0.01342
  5 H    -0.01452    0.01685   -0.04171
  6 H    -0.00704    0.02924    0.00099
  7 H    -0.01777   -0.01880   -0.01608
  8 H     0.00140   -0.01804    0.01027
  9 H    -0.00478    0.00971    0.02902
 10 H     0.01912   -0.01900   -0.00236
 11 H     0.02029    0.01879   -0.00227
 12 H     0.00186   -0.02930    0.01040
 13 H    -0.02288   -0.01227    0.02497
 14 H    -0.01253    0.00968   -0.02324
 15 H     0.00136   -0.01076   -0.02581
 16 H    -0.03322   -0.01028   -0.01889
 17 H    -0.00290    0.00229   -0.00709
 18 H     0.01557   -0.02887   -0.00649
 19 H    -0.02404   -0.00899   -0.00532
 20 H    -0.00151    0.00465   -0.01721
 21 O    -0.03736   -0.03749    0.00869
 22 O    -0.00193   -0.00765    0.00428
 23 O    -0.02829   -0.02535   -0.00705
 24 F     0.02061    0.00265   -0.00613
 25 S    -0.03046   -0.00585    0.04004
 26 C     0.00973    0.03269   -0.00723
 27 C    -0.02837    0.00204   -0.00935
 28 C     0.01615   -0.00098   -0.00196
 29 C    -0.00802    0.00552   -0.00517
 30 C     0.00973    0.01281   -0.00676
 31 C    -0.00617   -0.00493   -0.00127
 32 C    -0.01242   -0.01104    0.00968
 33 C     0.00191   -0.01061   -0.00864
 34 C    -0.00799   -0.01277   -0.02945
 35 C    -0.00482    0.00659   -0.00331
 36 C    -0.00539    0.00745   -0.00407
 37 N     0.01152   -0.02575    0.00635
 38 N     0.03415    0.02095    0.02748
 39 C    -0.02207    0.01547   -0.00290
 40 C     0.01064   -0.00138    0.01112
 41 C    -0.02129    0.03042    0.00627
 42 C    -0.00712   -0.00733   -0.01681
 43 C    -0.00189   -0.00356   -0.00099
 44 C     0.02650    0.02718    0.02366
 45 S     0.00591   -0.03145    0.02427

System changes: positions 

Initializing position-dependent things.

Density initialized from wave functions
         .--------------------------------------------------------.  
        /|                                                        |  
       / |                                                        |  
      /  |                                                        |  
     /   |                                                        |  
    /    |                                                        |  
   /     |                                                        |  
  /      |                                                        |  
 *       |               O                                        |  
 |       |           O                                            |  
 |       |             HS  CS       H             H               |  
 |       |      HH     N      C H C   H     H       H             |  
 |       |       C            H C  H  N     C      CH             |  
 |       |     H    CH             C     C     C                  |  
 |       |           C HH          O            C                 |  
 |       |         H                      C        F              |  
 |       |                             H     C                    |  
 |       |                                   H                    |  
 |       .--------------------------------------------------------.  
 |      /                                                        /   
 |     /                                                        /    
 |    /                                                        /     
 |   /                                                        /      
 |  /                                                        /       
 | /                                                        /        
 |/                                                        /         
 *--------------------------------------------------------*          

Positions:
   0 H     16.276977    6.705178    4.026615    ( 0.0000,  0.0000,  0.0000)
   1 H      9.781021    8.001277    7.303112    ( 0.0000,  0.0000,  0.0000)
   2 H     13.994719    6.627274    5.068537    ( 0.0000,  0.0000,  0.0000)
   3 H     15.828566    6.952152    8.963223    ( 0.0000,  0.0000,  0.0000)
   4 H     13.599672    6.767631    8.787205    ( 0.0000,  0.0000,  0.0000)
   5 H      6.582693    9.165483    8.036161    ( 0.0000,  0.0000,  0.0000)
   6 H     12.946997    5.217627   10.499365    ( 0.0000,  0.0000,  0.0000)
   7 H     11.761997    3.910438   10.399393    ( 0.0000,  0.0000,  0.0000)
   8 H     12.761490    4.309409    8.977707    ( 0.0000,  0.0000,  0.0000)
   9 H     18.221777    6.914737    9.208564    ( 0.0000,  0.0000,  0.0000)
  10 H     19.228029    6.411030    7.820289    ( 0.0000,  0.0000,  0.0000)
  11 H     18.855039    8.122981    8.059901    ( 0.0000,  0.0000,  0.0000)
  12 H      6.061239    5.447897    6.060702    ( 0.0000,  0.0000,  0.0000)
  13 H      7.684197    6.143967    6.309887    ( 0.0000,  0.0000,  0.0000)
  14 H      6.794502    5.415331    7.683879    ( 0.0000,  0.0000,  0.0000)
  15 H      5.489250    9.169909    5.935885    ( 0.0000,  0.0000,  0.0000)
  16 H      5.301153    7.656853    5.016663    ( 0.0000,  0.0000,  0.0000)
  17 H      6.933227    8.324555    5.303345    ( 0.0000,  0.0000,  0.0000)
  18 H      4.684272    6.643604    8.611668    ( 0.0000,  0.0000,  0.0000)
  19 H      3.988325    6.621620    6.962804    ( 0.0000,  0.0000,  0.0000)
  20 H      4.159074    8.163223    7.843292    ( 0.0000,  0.0000,  0.0000)
  21 O     12.022458    6.736888    6.024672    ( 0.0000,  0.0000,  0.0000)
  22 O      7.734551    9.026901   10.102481    ( 0.0000,  0.0000,  0.0000)
  23 O      6.679808    6.719345   10.098972    ( 0.0000,  0.0000,  0.0000)
  24 F     18.500815    6.931928    5.333881    ( 0.0000,  0.0000,  0.0000)
  25 S      9.647217    5.784972   10.172853    ( 0.0000,  0.0000,  0.0000)
  26 C     12.264524    6.677682    7.237909    ( 0.0000,  0.0000,  0.0000)
  27 C     11.165728    5.701954    9.351907    ( 0.0000,  0.0000,  0.0000)
  28 C      9.042342    6.982926    9.079700    ( 0.0000,  0.0000,  0.0000)
  29 C     16.155216    6.760675    5.111598    ( 0.0000,  0.0000,  0.0000)
  30 C      9.961622    7.284797    8.105882    ( 0.0000,  0.0000,  0.0000)
  31 C     14.886632    6.712533    5.686790    ( 0.0000,  0.0000,  0.0000)
  32 C     15.923763    6.901680    7.871725    ( 0.0000,  0.0000,  0.0000)
  33 C     17.274074    6.883832    5.919599    ( 0.0000,  0.0000,  0.0000)
  34 C     11.177495    6.559047    8.255462    ( 0.0000,  0.0000,  0.0000)
  35 C     14.767908    6.780616    7.083800    ( 0.0000,  0.0000,  0.0000)
  36 C     17.201416    6.957331    7.313050    ( 0.0000,  0.0000,  0.0000)
  37 N     13.536926    6.719469    7.761360    ( 0.0000,  0.0000,  0.0000)
  38 N      6.920238    8.191826    7.917959    ( 0.0000,  0.0000,  0.0000)
  39 C     12.210131    4.738300    9.829002    ( 0.0000,  0.0000,  0.0000)
  40 C     18.438638    7.105175    8.147598    ( 0.0000,  0.0000,  0.0000)
  41 C      6.689820    6.014236    6.765561    ( 0.0000,  0.0000,  0.0000)
  42 C      5.936788    8.178854    5.747819    ( 0.0000,  0.0000,  0.0000)
  43 C      4.633536    7.185028    7.656222    ( 0.0000,  0.0000,  0.0000)
  44 C      6.029899    7.366780    7.044674    ( 0.0000,  0.0000,  0.0000)
  45 S      7.480766    7.751069    9.437272    ( 0.0000,  0.0000,  0.0000)

Unit cell:
           periodic     x           y           z      points  spacing
  1. axis:    no    23.211100    0.000000    0.000000   108     0.2149
  2. axis:    no     0.000000   13.229400    0.000000    63     0.2100
  3. axis:    no     0.000000    0.000000   14.403800    70     0.2058

  Lengths:  23.211100  13.229400  14.403800
  Angles:   90.000000  90.000000  90.000000

Effective grid spacing dv^(1/3) = 0.2102

                     log10-error:    total        iterations:
           time      wfs    density  energy       poisson
iter:   1  05:20:51  -4.06         -267.546907           
iter:   2  05:21:08  -5.45  -3.22  -267.546841           
iter:   3  05:21:23  -5.19  -3.23  -267.546504           
iter:   4  05:21:40  -6.40  -3.55  -267.546498           
iter:   5  05:21:56  -6.15  -3.59  -267.546467           
iter:   6  05:22:11  -6.22  -3.88  -267.546470           
iter:   7  05:22:28  -7.16  -3.95  -267.546464           
iter:   8  05:22:45  -6.78  -4.10  -267.546462           
iter:   9  05:23:01  -8.06  -4.45  -267.546461           

Converged after 9 iterations.

Dipole moment: (0.290253, -0.319722, -0.007376) |e|*Ang

Energy contributions relative to reference atoms: (reference = -51247.291862)

Kinetic:       +193.676082
Potential:     -203.546003
External:        +0.000000
XC:            -257.344056
Entropy (-ST):   +0.000000
Local:           -0.332483
--------------------------
Free energy:   -267.546461
Extrapolated:  -267.546461

 Band  Eigenvalues  Occupancy
    0    -30.26537    2.00000
    1    -27.40719    2.00000
    2    -25.78788    2.00000
    3    -24.61416    2.00000
    4    -23.55990    2.00000
    5    -22.83455    2.00000
    6    -22.08759    2.00000
    7    -21.07372    2.00000
    8    -19.45263    2.00000
    9    -19.13523    2.00000
   10    -18.97785    2.00000
   11    -18.71043    2.00000
   12    -18.05743    2.00000
   13    -17.27119    2.00000
   14    -16.77491    2.00000
   15    -16.66757    2.00000
   16    -16.52902    2.00000
   17    -16.04630    2.00000
   18    -15.27177    2.00000
   19    -15.09959    2.00000
   20    -14.14521    2.00000
   21    -13.92650    2.00000
   22    -13.58830    2.00000
   23    -13.18822    2.00000
   24    -12.81218    2.00000
   25    -12.63400    2.00000
   26    -12.36295    2.00000
   27    -11.89520    2.00000
   28    -11.57772    2.00000
   29    -11.39703    2.00000
   30    -10.98470    2.00000
   31    -10.81882    2.00000
   32    -10.67712    2.00000
   33    -10.60854    2.00000
   34    -10.53056    2.00000
   35    -10.36498    2.00000
   36    -10.31822    2.00000
   37    -10.13330    2.00000
   38    -10.03183    2.00000
   39     -9.97840    2.00000
   40     -9.67803    2.00000
   41     -9.66292    2.00000
   42     -9.57181    2.00000
   43     -9.37649    2.00000
   44     -9.18067    2.00000
   45     -9.16526    2.00000
   46     -9.09392    2.00000
   47     -9.01158    2.00000
   48     -8.84309    2.00000
   49     -8.77395    2.00000
   50     -8.71704    2.00000
   51     -8.46281    2.00000
   52     -8.36017    2.00000
   53     -8.29802    2.00000
   54     -7.95978    2.00000
   55     -7.87455    2.00000
   56     -7.81466    2.00000
   57     -7.48422    2.00000
   58     -7.13006    2.00000
   59     -7.02321    2.00000
   60     -6.94176    2.00000
   61     -6.67079    2.00000
   62     -6.19000    2.00000
   63     -5.95463    2.00000
   64     -5.93173    2.00000
   65     -5.49074    2.00000
   66     -5.40743    2.00000
   67     -4.94348    2.00000
   68     -1.75678    0.00000
   69     -1.20028    0.00000
   70     -0.97452    0.00000
   71     -0.57052    0.00000
   72     -0.25755    0.00000
   73     -0.18847    0.00000
   74     -0.13974    0.00000
   75      0.04365    0.00000
   76      0.30322    0.00000
   77      0.48133    0.00000
   78      0.56880    0.00000
   79      0.62009    0.00000
   80      0.65612    0.00000
   81      0.70239    0.00000
   82      0.74626    0.00000
   83      0.84036    0.00000
   84      0.89812    0.00000
   85      0.94085    0.00000

Fermi level: -3.35013

Gap: 3.187 eV
Transition (v -> c):
  (s=0, k=0, n=67, [0.00, 0.00, 0.00]) -> (s=0, k=0, n=68, [0.00, 0.00, 0.00])

Forces in eV/Ang:
  0 H     0.01095    0.00450    0.01108
  1 H     0.00056   -0.00747   -0.00233
  2 H    -0.01596   -0.00414    0.01385
  3 H     0.00208    0.00450    0.01053
  4 H    -0.00676    0.00424    0.01628
  5 H    -0.01140    0.01847   -0.03510
  6 H    -0.00713    0.02048    0.00207
  7 H    -0.01406   -0.01109   -0.01649
  8 H     0.00121   -0.01493    0.01551
  9 H     0.00321    0.01159    0.02229
 10 H     0.01037   -0.01418    0.00710
 11 H     0.01897    0.01160    0.00298
 12 H    -0.00521   -0.02427    0.00587
 13 H    -0.01113   -0.00870    0.02265
 14 H    -0.00736    0.00551   -0.00900
 15 H    -0.00674    0.00725   -0.02236
 16 H    -0.03562   -0.01687   -0.01882
 17 H     0.00928    0.00165   -0.01208
 18 H     0.01732   -0.02847   -0.00730
 19 H    -0.02416   -0.00638   -0.00255
 20 H    -0.00247    0.00519   -0.01756
 21 O    -0.02107   -0.02635    0.00550
 22 O     0.00939   -0.00978   -0.00811
 23 O    -0.02494   -0.01407   -0.00996
 24 F     0.00251   -0.00192    0.00391
 25 S    -0.01142   -0.00174    0.02681
 26 C    -0.01793    0.00194   -0.01214
 27 C    -0.03590   -0.00281   -0.01262
 28 C     0.00703    0.00709    0.00297
 29 C    -0.00655    0.00025   -0.01419
 30 C     0.00431    0.02141   -0.00846
 31 C    -0.00640   -0.00303   -0.00820
 32 C     0.00952   -0.00747    0.00509
 33 C     0.00181   -0.01186   -0.00607
 34 C    -0.01765   -0.00184   -0.01504
 35 C     0.01141   -0.00101   -0.01038
 36 C     0.00649    0.00038   -0.01029
 37 N    -0.00213   -0.01461    0.00736
 38 N     0.03123    0.01745    0.02443
 39 C    -0.02338    0.01814   -0.00476
 40 C     0.00831   -0.00039    0.00434
 41 C    -0.01792    0.01747    0.00453
 42 C    -0.00561   -0.00614   -0.01288
 43 C    -0.00786   -0.00057    0.00095
 44 C     0.02125    0.01979    0.02178
 45 S     0.00770   -0.03565    0.01342

Timing:                                      incl.     excl.
-------------------------------------------------------------------
Density initialized from wave functions:   119.810   119.808   1.1% |
 Symmetrize density:                         0.002     0.002   0.0% |
Forces:                                    542.560   542.560   4.9% |-|
Hamiltonian:                                92.002     5.437   0.0% |
 Atomic:                                     2.105     0.066   0.0% |
  XC Correction:                             2.039     2.039   0.0% |
 Calculate atomic Hamiltonians:             44.825    44.825   0.4% |
 Communicate:                                5.457     5.457   0.0% |
 Initialize Hamiltonian:                     0.003     0.003   0.0% |
 Poisson:                                    0.240     0.240   0.0% |
 XC 3D grid:                                33.935    33.935   0.3% |
LCAO initialization:                         6.936     2.183   0.0% |
 LCAO eigensolver:                           0.250     0.000   0.0% |
  Calculate projections:                     0.000     0.000   0.0% |
  DenseAtomicCorrection:                     0.000     0.000   0.0% |
  Distribute overlap matrix:                 0.235     0.235   0.0% |
  Orbital Layouts:                           0.013     0.013   0.0% |
  Potential matrix:                          0.002     0.002   0.0% |
 LCAO to grid:                               4.125     4.125   0.0% |
 Set positions (LCAO WFS):                   0.378     0.298   0.0% |
  Basic WFS set positions:                   0.004     0.004   0.0% |
  Basis functions set positions:             0.001     0.001   0.0% |
  P tci:                                     0.002     0.002   0.0% |
  ST tci:                                    0.015     0.015   0.0% |
  mktci:                                     0.058     0.058   0.0% |
PWDescriptor:                                0.242     0.242   0.0% |
Redistribute:                                0.074     0.074   0.0% |
SCF-cycle:                                8200.517     1.567   0.0% |
 Davidson:                                5870.991  2326.367  21.1% |-------|
  Apply H:                                 680.925   677.262   6.1% |-|
   HMM T:                                    3.663     3.663   0.0% |
  Subspace diag:                           853.598     0.230   0.0% |
   calc_h_matrix:                          761.076    52.584   0.5% |
    Apply H:                               708.492   704.689   6.4% |--|
     HMM T:                                  3.802     3.802   0.0% |
   diagonalize:                              8.576     8.576   0.1% |
   rotate_psi:                              83.716    83.716   0.8% |
  calc. matrices:                         1846.515   352.563   3.2% ||
   Apply H:                               1493.952  1485.892  13.5% |----|
    HMM T:                                   8.060     8.060   0.1% |
  diagonalize:                              18.061    18.061   0.2% |
  rotate_psi:                              145.526   145.526   1.3% ||
 Density:                                 1277.963     0.043   0.0% |
  Atomic density matrices:                   2.732     2.732   0.0% |
  Mix:                                     807.712   807.712   7.3% |--|
  Multipole moments:                         0.441     0.441   0.0% |
  Pseudo density:                          467.036   467.017   4.2% |-|
   Symmetrize density:                       0.019     0.019   0.0% |
 Hamiltonian:                              988.206    62.348   0.6% |
  Atomic:                                   31.851     1.053   0.0% |
   XC Correction:                           30.798    30.798   0.3% |
  Calculate atomic Hamiltonians:           477.549   477.549   4.3% |-|
  Communicate:                              75.770    75.770   0.7% |
  Poisson:                                   2.614     2.614   0.0% |
  XC 3D grid:                              338.073   338.073   3.1% ||
 Orthonormalize:                            61.790     0.049   0.0% |
  calc_s_matrix:                             4.183     4.183   0.0% |
  inverse-cholesky:                          1.135     1.135   0.0% |
  projections:                              53.606    53.606   0.5% |
  rotate_psi_s:                              2.817     2.817   0.0% |
Set symmetry:                                0.003     0.003   0.0% |
Other:                                    2069.005  2069.005  18.8% |-------|
-------------------------------------------------------------------
Total:                                             11031.148 100.0%

Memory usage: 1.37 GiB
Date: Wed Jul  7 05:56:18 2021
