9
Lattice="15.4512 0.0 0.0 0.0 14.5847 0.0 0.0 0.0 14.417300000000001" Properties=species:S:1:pos:R:3:forces:R:3:magmoms:R:1 energy=-44.95362805242319 dipole="-0.13729008839431803 -0.24857656059943786 -0.12358030785005966" magmom=0.0 free_energy=-44.95362805242319 pbc="F F F"
H        9.19112091       6.94299121       6.02658755      -0.00252485       0.00180250       0.00147607       0.00000000
H        9.44405267       7.57126684       7.67969226      -0.00456265      -0.00098340       0.00359006       0.00000000
H        8.69249403       8.60895387       6.43697248      -0.00449884       0.00191164       0.00135476       0.00000000
H        6.71685859       7.05708438       6.33461712      -0.00145575      -0.00330807      -0.00154977       0.00000000
H        5.98618243       7.58392998       8.48995727      -0.00202395       0.00118893       0.00294876       0.00000000
C        7.39071039       7.06442254       7.21539980       0.00011778      -0.00134349      -0.00324351       0.00000000
O        6.87351556       7.92175457       8.23642974      -0.00398758      -0.00364442      -0.00816291       0.00000000
C        8.75834856       7.57710656       6.81739557      -0.00100781      -0.00348916      -0.00232684       0.00000000
H        7.46919838       6.02124254       7.58371293      -0.00331008       0.00172491      -0.00083994       0.00000000
