104
Lattice="22.2631 0.0 0.0 0.0 23.2277 0.0 0.0 0.0 16.073700000000002" Properties=species:S:1:pos:R:3:forces:R:3:magmoms:R:1 energy=-603.5919823592187 dipole="0.5663374724515642 0.49027469993163153 0.16172342162409953" magmom=0.0 free_energy=-603.5919823592187 pbc="F F F"
H       16.21354995      11.30134573       7.97837350      -0.00223875      -0.01020753       0.00897411       0.00000000
H       17.16753376       9.62935474       6.52874977      -0.00930954       0.00637594       0.00444443       0.00000000
H        6.64736111      15.56809869       5.10250292      -0.00363230       0.00343789      -0.00407776       0.00000000
H        7.37415593      17.11602173      12.06700084       0.00481882      -0.00242472       0.01330915       0.00000000
H        5.71337183      18.69105843      11.07424997       0.01060733       0.00796999      -0.00400190       0.00000000
H        8.49590299      15.42443106      10.61182216       0.01301337      -0.00387203       0.00411324       0.00000000
H        8.04440148       8.67888494       7.37209092      -0.00985127      -0.00229092      -0.00925634       0.00000000
H       12.97126233       9.96499666      10.75790506       0.01778494       0.00700412       0.03002491       0.00000000
H       13.70641915      13.65149260       8.30248456       0.01109512       0.00481613      -0.00418090       0.00000000
H        6.47707955      18.24332994       4.66238417       0.02731062      -0.01877730      -0.01858264       0.00000000
H        6.14362507      19.35136161       6.04688329       0.03227811       0.00288799       0.01033201       0.00000000
H        4.83660468      18.94813265       4.88583305      -0.00328660       0.00441736      -0.01540244       0.00000000
H        4.85720715       7.57878721       9.74877983      -0.01153253      -0.01173205      -0.02234918       0.00000000
H        4.41740541       7.00317175       8.11202704      -0.00140970      -0.00885333       0.01612861       0.00000000
H        4.04454006       6.00090802       9.54579209       0.00402146      -0.01228857      -0.00254204       0.00000000
H        5.71460235       5.09869032       7.05614190       0.00178447      -0.00796556       0.00276648       0.00000000
H        5.33653925       4.06224234       8.45763871       0.00355126      -0.00383504       0.00382335       0.00000000
H        7.03862647       4.29795303       7.95980621      -0.00872175       0.00010566       0.00068265       0.00000000
H        6.75952153       6.53623651      11.00079204       0.00579005      -0.00935810      -0.01020358       0.00000000
H        5.97151109       4.94268767      10.86420431       0.00040822       0.00566572      -0.01358914       0.00000000
H        7.65986173       5.15246822      10.30822503      -0.01676759       0.00202904      -0.00146831       0.00000000
H       12.92065620       7.67660027       3.99030445       0.01320563      -0.01126521      -0.01097575       0.00000000
H       13.44949525       6.71953723       5.37164108       0.00202744      -0.00246948      -0.00100973       0.00000000
H       17.53025591      13.80445009       9.00051359       0.00449106       0.00632891      -0.00497478       0.00000000
H       18.01928137      13.23613051      10.68895092      -0.00809333      -0.00321914      -0.00034637       0.00000000
H       18.09137942      15.70372036      11.42948799      -0.00485991       0.00820094       0.00417628       0.00000000
H       17.59693859      16.18934804       9.71662023       0.01042278       0.01222458       0.00283733       0.00000000
H        9.44215426      12.69666410       6.70875580       0.02591417       0.03173059      -0.02273582       0.00000000
H        8.02850128      11.64943994       6.83088815       0.00518481      -0.03511906       0.00641722       0.00000000
H        9.66740260      12.86547890      10.53317598      -0.00433573       0.03642281       0.00306501       0.00000000
H        8.68481475      11.38699970      10.33104861      -0.00789027      -0.00896100      -0.03269818       0.00000000
H       15.82668344       6.18091239       5.85963316       0.00518395       0.00427122      -0.00454796       0.00000000
H       16.81575033       6.79159307       7.20837769       0.01265858       0.00083496      -0.01554865       0.00000000
H       17.18152950       7.29234348       5.53567924      -0.00367387       0.00927251      -0.01408931       0.00000000
H       14.41774229       9.59823422       4.95670394      -0.00328085      -0.00487641       0.00494596       0.00000000
H       15.24505694       8.22914249       4.21171366       0.00880870       0.00313975       0.00560392       0.00000000
H       12.22720944      10.89978810       7.30954598       0.01424863       0.01362843      -0.00307433       0.00000000
H       13.54305496      12.14435460       7.10266704       0.01569398      -0.00533591       0.00194113       0.00000000
H       10.97806590       5.90905747       7.94156403       0.00631978       0.00382859      -0.01612339       0.00000000
H       12.32787355       5.77544875       6.78811966      -0.00616305       0.00453025      -0.00428572       0.00000000
H       12.42794174       6.92945630       8.14258653       0.00331447      -0.03327290      -0.01725986       0.00000000
H       11.73114175       9.23942047       5.27432438       0.01223528      -0.01177133       0.00833005       0.00000000
H       12.71746424       8.96588698       6.70965343       0.00793484      -0.00107739      -0.00117423       0.00000000
H       15.96051313      14.33084494      11.65708820      -0.01250916       0.00425357       0.00490108       0.00000000
H       11.13814569      12.17898171       8.70680346       0.01685414       0.03502404       0.03064294       0.00000000
H       13.85184941       9.31041588       8.28205226       0.00340478       0.00414804       0.02766879       0.00000000
H       10.56577015       8.44795476       8.47239148      -0.00469446       0.03538780      -0.00438566       0.00000000
H        7.42634558      12.78775414       8.86020689       0.01037981       0.00198528      -0.03810834       0.00000000
H       14.66794604       7.97785587       7.15163919      -0.00909362      -0.01418598       0.00967503       0.00000000
H       10.47293620       7.13283130       5.75825435       0.02476204      -0.00280108      -0.00290102       0.00000000
O        8.91217452       5.81538744       8.38464479      -0.01473641       0.01158177       0.00193812       0.00000000
O       10.58772385       9.65696041      10.72244892      -0.00802436       0.00690708      -0.01567498       0.00000000
O        9.53916951      10.08416348       5.78162939      -0.01152346       0.01133524      -0.00862762       0.00000000
O       14.78103720      12.21224681      10.95000587       0.02242513       0.00238109       0.01691649       0.00000000
O       14.00197383      15.90081569      10.31263756       0.01183609       0.01094755      -0.00120502       0.00000000
O       15.49261896      15.51767127       8.31684503       0.00377866       0.01195940      -0.01253136       0.00000000
Cl       4.75067674      19.09384697       8.54430542      -0.01264873      -0.00653155       0.00133642       0.00000000
N        7.78851869      14.86396590       6.70693638       0.01330599      -0.00836241      -0.01213871       0.00000000
O        5.26922596      17.44862859       6.18304776      -0.01447143      -0.01931801       0.01766939       0.00000000
O        6.96396273       7.05637728       8.37282801      -0.01281566       0.02702670       0.01657849       0.00000000
O        8.92543433      14.19023542       8.59849145       0.01996114       0.02402767      -0.00491264       0.00000000
C        8.28814446       6.84083821       8.12420204      -0.01605686       0.01235237       0.01220024       0.00000000
C       11.17623654      10.44540203       9.97579462       0.01517843      -0.00239524      -0.00916979       0.00000000
C        9.89493846       9.88863326       6.95423599       0.00980338       0.01495767       0.00305383       0.00000000
C       14.21652246      12.37607961       9.86791826       0.00554855      -0.00058987       0.01607163       0.00000000
C       15.61865557      10.42062060       7.70732208      -0.00463542      -0.00039754      -0.00292745       0.00000000
C       16.13914490       9.48626369       6.88744854      -0.00366756      -0.00784798       0.00623070       0.00000000
C        6.88757719      15.72719536       6.15961884      -0.00205654      -0.01160695       0.00056920       0.00000000
C        7.14489623      17.05672175      10.99993532       0.00497182      -0.00440080       0.00850514       0.00000000
C        6.20918727      17.94748458      10.44544548       0.01590796       0.00817897      -0.00079751       0.00000000
C        8.04005723      15.03992612       7.99214264       0.00070456      -0.00396832      -0.00647121       0.00000000
C        7.76392293      16.12140409      10.20140727       0.00426367      -0.00966785       0.00668978       0.00000000
C        5.90350763      17.90763997       9.09742432      -0.00276379       0.00299021       0.00374989       0.00000000
C        6.24323639      16.74391922       6.83937485       0.00709632      -0.00942294       0.01275519       0.00000000
C        7.45599275      16.04612658       8.82337845       0.01097311       0.00409934      -0.00238001       0.00000000
C        6.50843392      16.94952126       8.22779589       0.00431837       0.00016720       0.00503679       0.00000000
N        9.71385970      10.91351317       7.86979074       0.02313502       0.03168105       0.00809661       0.00000000
N        8.76628771       7.95496828       7.48595516       0.00085006      -0.00118864       0.03710372       0.00000000
N       12.54578064      10.55807470      10.02698283       0.01176306       0.01002732       0.02530234       0.00000000
N       14.21251828      13.57176340       9.19823294      -0.00550112       0.00354990      -0.00387544       0.00000000
C        5.72289640      18.55726022       5.40504167       0.00626670      -0.02688853      -0.00003316       0.00000000
C        4.78239220       6.68843934       9.10319174      -0.00447367      -0.01560444       0.00079862       0.00000000
C        6.06093970       4.78996637       8.05614968      -0.00414970       0.00311562       0.00271744       0.00000000
C        6.67523632       5.63474460      10.37178610      -0.01153139       0.00577387      -0.02330755       0.00000000
C       13.27588660       7.75528346       5.03247156       0.00383738      -0.00700636      -0.00687054       0.00000000
C       17.53465966      13.99854371      10.07555377       0.00552050      -0.00202353      -0.00574719       0.00000000
C       17.57813144      15.43391765      10.50445675      -0.01000651       0.01154248       0.00271832       0.00000000
C        6.14081431       6.00004490       8.98553333      -0.00957864       0.01140499      -0.01172424       0.00000000
C        8.88997180      12.03410424       7.39388263       0.03736928       0.02380969       0.00891852       0.00000000
C        9.29670735      12.13350912       9.80122852       0.00365546       0.01385773       0.00491739       0.00000000
C       16.36349855       7.06537698       6.24098096       0.00327756       0.01310270      -0.00533471       0.00000000
C       14.61487110       8.51735706       5.07250928      -0.00159070      -0.00083772      -0.00369396       0.00000000
C       13.17003081      11.29650453       7.68415447       0.01056054      -0.00427425       0.00209689       0.00000000
C       11.74229306       6.48036757       7.39821084      -0.00690945       0.00756929      -0.02325331       0.00000000
C       12.19937286       8.45121656       5.88620330       0.01612502      -0.00573848      -0.00217586       0.00000000
C       16.30684872      14.63110570      10.66812483      -0.00423020       0.00119949      -0.00200280       0.00000000
C       10.42624316      11.41208433       9.06409870       0.01459659       0.02033826      -0.00436027       0.00000000
C       14.22231580      10.33518224       8.18158221      -0.00614424       0.00114000      -0.00694705       0.00000000
C       10.15931527       8.44618376       7.44364735       0.00182271       0.00230808      -0.01101237       0.00000000
C        8.51274852      12.81143606       8.66791137       0.03424711       0.01946418       0.00593013       0.00000000
C       15.41583474       8.25991701       6.38830856      -0.00697458      -0.00594857       0.00805496       0.00000000
C       13.47105527      11.25056583       9.15823933      -0.00507515       0.00630442       0.01395035       0.00000000
C       11.10810687       7.58474042       6.54079344       0.01310098      -0.00062692      -0.00410834       0.00000000
S       14.97055203      15.08130044       9.60438132       0.00433664       0.01184621      -0.00863779       0.00000000
